    5    5    1    1
  0.4185344E+02  0.5937000E-09  0.5937000E-09  0.5937000E-09  0.5000000E-15
  1.000000000000000E-004
  CAR 
 unknown system                          
     44     84     30
 
  0.0000000E+00  0.0000000E+00  0.0000000E+00  0.5787037E-03
      1        -20.371556   1.000000
      2        -15.757669   1.000000
      3        -15.757669   1.000000
      4        -15.624539   1.000000
      5        -15.624539   1.000000
      6        -15.624539   1.000000
      7        -13.571583   1.000000
      8        -12.931049   1.000000
      9        -12.931049   1.000000
     10         -7.159939   1.000000
     11         -7.159939   1.000000
     12         -7.159939   1.000000
     13         -5.923454   1.000000
     14         -3.073432   1.000000
     15         -3.073432   1.000000
     16         -3.073432   1.000000
     17         -0.972324   1.000000
     18         -0.972324   1.000000
     19         -0.972324   1.000000
     20         -0.870915   1.000000
     21         -0.870915   1.000000
     22         -0.870915   1.000000
     23          4.123490   0.000000
     24          5.272467   0.000000
     25          5.272467   0.000000
     26          6.017132   0.000000
     27          6.017132   0.000000
     28          6.017133   0.000000
     29          6.901477   0.000000
     30          6.901477   0.000000
 
  0.8333333E-01  0.0000000E+00  0.0000000E+00  0.3472222E-02
      1        -20.371451   1.000000
      2        -15.757643   1.000000
      3        -15.753998   1.000000
      4        -15.624380   1.000000
      5        -15.624380   1.000000
      6        -15.624348   1.000000
      7        -13.564559   1.000000
      8        -12.944287   1.000000
      9        -12.930891   1.000000
     10         -7.159336   1.000000
     11         -7.159237   1.000000
     12         -7.159237   1.000000
     13         -5.988209   1.000000
     14         -3.067669   1.000000
     15         -3.067669   1.000000
     16         -2.945079   1.000000
     17         -0.980660   1.000000
     18         -0.979962   1.000000
     19         -0.979962   1.000000
     20         -0.878918   1.000000
     21         -0.878918   1.000000
     22         -0.877683   1.000000
     23          4.190843   0.000000
     24          5.313042   0.000000
     25          5.324680   0.000000
     26          6.039449   0.000000
     27          6.052345   0.000000
     28          6.052345   0.000000
     29          6.666238   0.000000
     30          6.891271   0.000000
 
  0.1666667E+00  0.0000000E+00  0.0000000E+00  0.3472222E-02
      1        -20.371274   1.000000
      2        -15.757570   1.000000
      3        -15.744286   1.000000
      4        -15.624454   1.000000
      5        -15.624454   1.000000
      6        -15.624303   1.000000
      7        -13.543481   1.000000
      8        -12.982601   1.000000
      9        -12.930603   1.000000
     10         -7.157796   1.000000
     11         -7.157364   1.000000
     12         -7.157364   1.000000
     13         -6.144423   1.000000
     14         -3.051676   1.000000
     15         -3.051676   1.000000
     16         -2.610688   1.000000
     17         -1.003171   1.000000
     18         -1.002322   1.000000
     19         -1.002322   1.000000
     20         -0.899378   1.000000
     21         -0.899378   1.000000
     22         -0.886454   1.000000
     23          4.382697   0.000000
     24          5.427256   0.000000
     25          5.473603   0.000000
     26          6.069812   0.000000
     27          6.105206   0.000000
     28          6.141869   0.000000
     29          6.141870   0.000000
     30          6.885681   0.000000
 
  0.2500000E+00  0.0000000E+00  0.0000000E+00  0.3472222E-02
      1        -20.371076   1.000000
      2        -15.757588   1.000000
      3        -15.731156   1.000000
      4        -15.624738   1.000000
      5        -15.624738   1.000000
      6        -15.624281   1.000000
      7        -13.508674   1.000000
      8        -13.041234   1.000000
      9        -12.930236   1.000000
     10         -7.155765   1.000000
     11         -7.154819   1.000000
     12         -7.154819   1.000000
     13         -6.323397   1.000000
     14         -3.029211   1.000000
     15         -3.029211   1.000000
     16         -2.186477   1.000000
     17         -1.036201   1.000000
     18         -1.036201   1.000000
     19         -1.033311   1.000000
     20         -0.924203   1.000000
     21         -0.924203   1.000000
     22         -0.858608   1.000000
     23          4.655189   0.000000
     24          5.287697   0.000000
     25          5.641189   0.000000
     26          5.695240   0.000000
     27          6.210168   0.000000
     28          6.235012   0.000000
     29          6.235013   0.000000
     30          6.949690   0.000000
 
  0.3333333E+00  0.0000000E+00  0.0000000E+00  0.3472222E-02
      1        -20.370822   1.000000
      2        -15.757420   1.000000
      3        -15.717479   1.000000
      4        -15.624893   1.000000
      5        -15.624893   1.000000
      6        -15.624102   1.000000
      7        -13.461753   1.000000
      8        -13.112082   1.000000
      9        -12.929782   1.000000
     10         -7.153720   1.000000
     11         -7.152237   1.000000
     12         -7.152237   1.000000
     13         -6.475568   1.000000
     14         -3.005960   1.000000
     15         -3.005960   1.000000
     16         -1.824925   1.000000
     17         -1.073311   1.000000
     18         -1.073311   1.000000
     19         -1.062766   1.000000
     20         -0.946107   1.000000
     21         -0.946107   1.000000
     22         -0.725046   1.000000
     23          4.437493   0.000000
     24          5.098131   0.000000
     25          5.847146   0.000000
     26          5.945559   0.000000
     27          6.280162   0.000000
     28          6.280163   0.000000
     29          6.343463   0.000000
     30          7.135593   0.000000
 
  0.4166667E+00  0.0000000E+00  0.0000000E+00  0.3472222E-02
      1        -20.370663   1.000000
      2        -15.757458   1.000000
      3        -15.707515   1.000000
      4        -15.625063   1.000000
      5        -15.625063   1.000000
      6        -15.624049   1.000000
      7        -13.409463   1.000000
      8        -13.182114   1.000000
      9        -12.929496   1.000000
     10         -7.152281   1.000000
     11         -7.150361   1.000000
     12         -7.150361   1.000000
     13         -6.574642   1.000000
     14         -2.988396   1.000000
     15         -2.988396   1.000000
     16         -1.640746   1.000000
     17         -1.102088   1.000000
     18         -1.102088   1.000000
     19         -1.083919   1.000000
     20         -0.960788   1.000000
     21         -0.960788   1.000000
     22         -0.486716   1.000000
     23          3.854186   0.000000
     24          5.398774   0.000000
     25          6.054649   0.000000
     26          6.155040   0.000000
     27          6.286685   0.000000
     28          6.286685   0.000000
     29          6.476080   0.000000
     30          7.430245   0.000000
 
  0.5000000E+00  0.0000000E+00  0.0000000E+00  0.1736111E-02
      1        -20.370662   1.000000
      2        -15.757754   1.000000
      3        -15.704015   1.000000
      4        -15.625337   1.000000
      5        -15.625337   1.000000
      6        -15.624194   1.000000
      7        -13.379435   1.000000
      8        -13.218718   1.000000
      9        -12.929439   1.000000
     10         -7.151811   1.000000
     11         -7.149717   1.000000
     12         -7.149717   1.000000
     13         -6.608787   1.000000
     14         -2.981851   1.000000
     15         -2.981851   1.000000
     16         -1.594604   1.000000
     17         -1.112906   1.000000
     18         -1.112906   1.000000
     19         -1.091584   1.000000
     20         -0.965947   1.000000
     21         -0.965947   1.000000
     22         -0.355822   1.000000
     23          3.615659   0.000000
     24          5.536631   0.000000
     25          6.156265   0.000000
     26          6.239317   0.000000
     27          6.285144   0.000000
     28          6.285144   0.000000
     29          6.539523   0.000000
     30          7.448745   0.000000
 
  0.8333333E-01  0.8333333E-01  0.0000000E+00  0.6944444E-02
      1        -20.371388   1.000000
      2        -15.755849   1.000000
      3        -15.752206   1.000000
      4        -15.624447   1.000000
      5        -15.624420   1.000000
      6        -15.624322   1.000000
      7        -13.557630   1.000000
      8        -12.950615   1.000000
      9        -12.937585   1.000000
     10         -7.160381   1.000000
     11         -7.158564   1.000000
     12         -7.157195   1.000000
     13         -6.050894   1.000000
     14         -3.061753   1.000000
     15         -2.985460   1.000000
     16         -2.895196   1.000000
     17         -1.017196   1.000000
     18         -0.987236   1.000000
     19         -0.964223   1.000000
     20         -0.898899   1.000000
     21         -0.887433   1.000000
     22         -0.864419   1.000000
     23          4.255387   0.000000
     24          5.359108   0.000000
     25          5.366151   0.000000
     26          6.059607   0.000000
     27          6.074422   0.000000
     28          6.087326   0.000000
     29          6.606498   0.000000
     30          6.761262   0.000000
 
  0.1666667E+00  0.8333333E-01  0.0000000E+00  0.1388889E-01
      1        -20.371219   1.000000
      2        -15.755140   1.000000
      3        -15.743148   1.000000
      4        -15.624534   1.000000
      5        -15.624525   1.000000
      6        -15.624294   1.000000
      7        -13.536838   1.000000
      8        -12.985713   1.000000
      9        -12.939955   1.000000
     10         -7.160183   1.000000
     11         -7.156724   1.000000
     12         -7.154676   1.000000
     13         -6.202961   1.000000
     14         -3.045325   1.000000
     15         -2.944604   1.000000
     16         -2.589837   1.000000
     17         -1.070522   1.000000
     18         -1.008629   1.000000
     19         -0.966148   1.000000
     20         -0.912903   1.000000
     21         -0.909268   1.000000
     22         -0.860464   1.000000
     23          4.439306   0.000000
     24          5.468475   0.000000
     25          5.503233   0.000000
     26          5.992705   0.000000
     27          6.113555   0.000000
     28          6.181209   0.000000
     29          6.190605   0.000000
     30          6.732724   0.000000
 
  0.2500000E+00  0.8333333E-01  0.0000000E+00  0.1388889E-01
      1        -20.371016   1.000000
      2        -15.755020   1.000000
      3        -15.730079   1.000000
      4        -15.624789   1.000000
      5        -15.624753   1.000000
      6        -15.624260   1.000000
      7        -13.502493   1.000000
      8        -13.043136   1.000000
      9        -12.939960   1.000000
     10         -7.158814   1.000000
     11         -7.154210   1.000000
     12         -7.152406   1.000000
     13         -6.378327   1.000000
     14         -3.022226   1.000000
     15         -2.918472   1.000000
     16         -2.174012   1.000000
     17         -1.126194   1.000000
     18         -1.041470   1.000000
     19         -0.977095   1.000000
     20         -0.935737   1.000000
     21         -0.916259   1.000000
     22         -0.838770   1.000000
     23          4.695264   0.000000
     24          5.258036   0.000000
     25          5.684701   0.000000
     26          5.711488   0.000000
     27          6.176121   0.000000
     28          6.184655   0.000000
     29          6.295267   0.000000
     30          6.867700   0.000000
 
  0.3333333E+00  0.8333333E-01  0.0000000E+00  0.1388889E-01
      1        -20.370801   1.000000
      2        -15.754970   1.000000
      3        -15.716478   1.000000
      4        -15.625099   1.000000
      5        -15.624995   1.000000
      6        -15.624269   1.000000
      7        -13.456158   1.000000
      8        -13.112995   1.000000
      9        -12.939661   1.000000
     10         -7.156641   1.000000
     11         -7.151693   1.000000
     12         -7.150947   1.000000
     13         -6.528160   1.000000
     14         -2.998295   1.000000
     15         -2.893287   1.000000
     16         -1.822204   1.000000
     17         -1.168195   1.000000
     18         -1.078028   1.000000
     19         -0.984865   1.000000
     20         -0.958862   1.000000
     21         -0.932219   1.000000
     22         -0.710973   1.000000
     23          4.407919   0.000000
     24          5.136821   0.000000
     25          5.881466   0.000000
     26          5.942506   0.000000
     27          6.169548   0.000000
     28          6.233433   0.000000
     29          6.408463   0.000000
     30          7.092938   0.000000
 
  0.4166667E+00  0.8333333E-01  0.0000000E+00  0.1388889E-01
      1        -20.370627   1.000000
      2        -15.754914   1.000000
      3        -15.706467   1.000000
      4        -15.625146   1.000000
      5        -15.625102   1.000000
      6        -15.624178   1.000000
      7        -13.404306   1.000000
      8        -13.182291   1.000000
      9        -12.939388   1.000000
     10         -7.154311   1.000000
     11         -7.150642   1.000000
     12         -7.149835   1.000000
     13         -6.625983   1.000000
     14         -2.980200   1.000000
     15         -2.874451   1.000000
     16         -1.650416   1.000000
     17         -1.190729   1.000000
     18         -1.106687   1.000000
     19         -0.985208   1.000000
     20         -0.974194   1.000000
     21         -0.954882   1.000000
     22         -0.472856   1.000000
     23          3.823521   0.000000
     24          5.441283   0.000000
     25          6.024336   0.000000
     26          6.125795   0.000000
     27          6.218347   0.000000
     28          6.244769   0.000000
     29          6.520081   0.000000
     30          7.275063   0.000000
 
  0.5000000E+00  0.8333333E-01  0.0000000E+00  0.6944444E-02
      1        -20.370570   1.000000
      2        -15.754941   1.000000
      3        -15.702850   1.000000
      4        -15.625159   1.000000
      5        -15.625109   1.000000
      6        -15.624153   1.000000
      7        -13.374264   1.000000
      8        -13.218745   1.000000
      9        -12.939302   1.000000
     10         -7.152982   1.000000
     11         -7.151035   1.000000
     12         -7.149158   1.000000
     13         -6.659736   1.000000
     14         -2.973448   1.000000
     15         -2.867429   1.000000
     16         -1.610007   1.000000
     17         -1.197555   1.000000
     18         -1.117509   1.000000
     19         -0.980042   1.000000
     20         -0.979547   1.000000
     21         -0.969145   1.000000
     22         -0.341119   1.000000
     23          3.584703   0.000000
     24          5.587487   0.000000
     25          6.030324   0.000000
     26          6.231058   0.000000
     27          6.244478   0.000000
     28          6.269127   0.000000
     29          6.573809   0.000000
     30          7.319015   0.000000
 
  0.1666667E+00  0.1666667E+00  0.0000000E+00  0.6944444E-02
      1        -20.371052   1.000000
      2        -15.751043   1.000000
      3        -15.737403   1.000000
      4        -15.624694   1.000000
      5        -15.624516   1.000000
      6        -15.624315   1.000000
      7        -13.516916   1.000000
      8        -13.003932   1.000000
      9        -12.957620   1.000000
     10         -7.161772   1.000000
     11         -7.154960   1.000000
     12         -7.152249   1.000000
     13         -6.346587   1.000000
     14         -3.027664   1.000000
     15         -2.732184   1.000000
     16         -2.464945   1.000000
     17         -1.153310   1.000000
     18         -1.027228   1.000000
     19         -0.957342   1.000000
     20         -0.935077   1.000000
     21         -0.911256   1.000000
     22         -0.829389   1.000000
     23          4.599842   0.000000
     24          5.567565   0.000000
     25          5.578834   0.000000
     26          5.911850   0.000000
     27          5.916533   0.000000
     28          6.136502   0.000000
     29          6.283925   0.000000
     30          6.665850   0.000000
 
  0.2500000E+00  0.1666667E+00  0.0000000E+00  0.1388889E-01
      1        -20.370860   1.000000
      2        -15.749256   1.000000
      3        -15.725753   1.000000
      4        -15.624991   1.000000
      5        -15.624727   1.000000
      6        -15.624464   1.000000
      7        -13.483940   1.000000
      8        -13.051399   1.000000
      9        -12.965263   1.000000
     10         -7.161982   1.000000
     11         -7.152559   1.000000
     12         -7.150979   1.000000
     13         -6.514511   1.000000
     14         -3.002771   1.000000
     15         -2.637662   1.000000
     16         -2.128527   1.000000
     17         -1.226977   1.000000
     18         -1.056598   1.000000
     19         -0.966757   1.000000
     20         -0.963138   1.000000
     21         -0.878278   1.000000
     22         -0.796114   1.000000
     23          4.794853   0.000000
     24          5.192736   0.000000
     25          5.655735   0.000000
     26          5.810616   0.000000
     27          5.934222   0.000000
     28          6.157396   0.000000
     29          6.414522   0.000000
     30          6.868122   0.000000
 
  0.3333333E+00  0.1666667E+00  0.0000000E+00  0.1388889E-01
      1        -20.370644   1.000000
      2        -15.748685   1.000000
      3        -15.712623   1.000000
      4        -15.625123   1.000000
      5        -15.624940   1.000000
      6        -15.624445   1.000000
      7        -13.439279   1.000000
      8        -13.116428   1.000000
      9        -12.967215   1.000000
     10         -7.160753   1.000000
     11         -7.151144   1.000000
     12         -7.150151   1.000000
     13         -6.659464   1.000000
     14         -2.976909   1.000000
     15         -2.594888   1.000000
     16         -1.814240   1.000000
     17         -1.263639   1.000000
     18         -1.091056   1.000000
     19         -0.993892   1.000000
     20         -0.971254   1.000000
     21         -0.848770   1.000000
     22         -0.671921   1.000000
     23          4.329071   0.000000
     24          5.220946   0.000000
     25          5.654230   0.000000
     26          5.977105   0.000000
     27          6.118789   0.000000
     28          6.160774   0.000000
     29          6.535213   0.000000
     30          7.031525   0.000000
 
  0.4166667E+00  0.1666667E+00  0.0000000E+00  0.1388889E-01
      1        -20.370501   1.000000
      2        -15.748480   1.000000
      3        -15.702762   1.000000
      4        -15.625339   1.000000
      5        -15.625148   1.000000
      6        -15.624424   1.000000
      7        -13.388768   1.000000
      8        -13.182954   1.000000
      9        -12.967746   1.000000
     10         -7.158457   1.000000
     11         -7.152741   1.000000
     12         -7.148384   1.000000
     13         -6.754699   1.000000
     14         -2.957300   1.000000
     15         -2.568306   1.000000
     16         -1.679361   1.000000
     17         -1.258929   1.000000
     18         -1.119208   1.000000
     19         -1.011252   1.000000
     20         -0.976915   1.000000
     21         -0.847495   1.000000
     22         -0.427870   1.000000
     23          3.740744   0.000000
     24          5.458544   0.000000
     25          5.671942   0.000000
     26          6.150799   0.000000
     27          6.152413   0.000000
     28          6.304412   0.000000
     29          6.631005   0.000000
     30          7.181682   0.000000
 
  0.5000000E+00  0.1666667E+00  0.0000000E+00  0.6944444E-02
      1        -20.370465   1.000000
      2        -15.748460   1.000000
      3        -15.699169   1.000000
      4        -15.625492   1.000000
      5        -15.625238   1.000000
      6        -15.624519   1.000000
      7        -13.358820   1.000000
      8        -13.218895   1.000000
      9        -12.967864   1.000000
     10         -7.156270   1.000000
     11         -7.154708   1.000000
     12         -7.147750   1.000000
     13         -6.787650   1.000000
     14         -2.949969   1.000000
     15         -2.558761   1.000000
     16         -1.654587   1.000000
     17         -1.251645   1.000000
     18         -1.130038   1.000000
     19         -1.017186   1.000000
     20         -0.978808   1.000000
     21         -0.849355   1.000000
     22         -0.292838   1.000000
     23          3.500351   0.000000
     24          5.516278   0.000000
     25          5.736967   0.000000
     26          6.147460   0.000000
     27          6.251676   0.000000
     28          6.356118   0.000000
     29          6.671877   0.000000
     30          7.231941   0.000000
 
  0.2500000E+00  0.2500000E+00  0.0000000E+00  0.6944444E-02
      1        -20.370653   1.000000
      2        -15.744571   1.000000
      3        -15.716764   1.000000
      4        -15.625059   1.000000
      5        -15.624774   1.000000
      6        -15.624624   1.000000
      7        -13.453156   1.000000
      8        -13.076259   1.000000
      9        -12.992011   1.000000
     10         -7.164035   1.000000
     11         -7.151332   1.000000
     12         -7.150306   1.000000
     13         -6.675759   1.000000
     14         -2.975259   1.000000
     15         -2.347238   1.000000
     16         -2.002080   1.000000
     17         -1.311022   1.000000
     18         -1.080134   1.000000
     19         -1.006867   1.000000
     20         -0.968867   1.000000
     21         -0.791689   1.000000
     22         -0.755606   1.000000
     23          4.845086   0.000000
     24          4.949807   0.000000
     25          5.354986   0.000000
     26          5.960111   0.000000
     27          6.042959   0.000000
     28          6.121974   0.000000
     29          6.565729   0.000000
     30          6.920458   0.000000
 
  0.3333333E+00  0.2500000E+00  0.0000000E+00  0.1388889E-01
      1        -20.370452   1.000000
      2        -15.742300   1.000000
      3        -15.705120   1.000000
      4        -15.625279   1.000000
      5        -15.624969   1.000000
      6        -15.624679   1.000000
      7        -13.411194   1.000000
      8        -13.125492   1.000000
      9        -13.005817   1.000000
     10         -7.164420   1.000000
     11         -7.153398   1.000000
     12         -7.148049   1.000000
     13         -6.816338   1.000000
     14         -2.946555   1.000000
     15         -2.212187   1.000000
     16         -1.801478   1.000000
     17         -1.337175   1.000000
     18         -1.109620   1.000000
     19         -1.041837   1.000000
     20         -0.980183   1.000000
     21         -0.738716   1.000000
     22         -0.600354   1.000000
     23          4.225532   0.000000
     24          4.854732   0.000000
     25          5.529076   0.000000
     26          6.082026   0.000000
     27          6.114374   0.000000
     28          6.285445   0.000000
     29          6.700602   0.000000
     30          7.015601   0.000000
 
  0.4166667E+00  0.2500000E+00  0.0000000E+00  0.1388889E-01
      1        -20.370327   1.000000
      2        -15.741387   1.000000
      3        -15.695849   1.000000
      4        -15.625583   1.000000
      5        -15.625213   1.000000
      6        -15.624755   1.000000
      7        -13.362909   1.000000
      8        -13.184552   1.000000
      9        -13.010682   1.000000
     10         -7.163059   1.000000
     11         -7.156646   1.000000
     12         -7.146399   1.000000
     13         -6.909300   1.000000
     14         -2.924699   1.000000
     15         -2.157479   1.000000
     16         -1.722294   1.000000
     17         -1.295050   1.000000
     18         -1.136252   1.000000
     19         -1.062996   1.000000
     20         -0.991121   1.000000
     21         -0.727597   1.000000
     22         -0.336379   1.000000
     23          3.629897   0.000000
     24          4.814538   0.000000
     25          5.805200   0.000000
     26          6.051046   0.000000
     27          6.243444   0.000000
     28          6.470476   0.000000
     29          6.787369   0.000000
     30          7.143468   0.000000
 
  0.5000000E+00  0.2500000E+00  0.0000000E+00  0.6944444E-02
      1        -20.370243   1.000000
      2        -15.741055   1.000000
      3        -15.692209   1.000000
      4        -15.625518   1.000000
      5        -15.625151   1.000000
      6        -15.624650   1.000000
      7        -13.332935   1.000000
      8        -13.219066   1.000000
      9        -13.011846   1.000000
     10         -7.160704   1.000000
     11         -7.159659   1.000000
     12         -7.145773   1.000000
     13         -6.941536   1.000000
     14         -2.916504   1.000000
     15         -2.139728   1.000000
     16         -1.715993   1.000000
     17         -1.269416   1.000000
     18         -1.147018   1.000000
     19         -1.069866   1.000000
     20         -0.995829   1.000000
     21         -0.724788   1.000000
     22         -0.196419   1.000000
     23          3.385809   0.000000
     24          4.798607   0.000000
     25          5.973245   0.000000
     26          6.039575   0.000000
     27          6.280021   0.000000
     28          6.488506   0.000000
     29          6.818720   0.000000
     30          7.203501   0.000000
 
  0.3333333E+00  0.3333333E+00  0.0000000E+00  0.6944444E-02
      1        -20.370279   1.000000
      2        -15.738238   1.000000
      3        -15.695216   1.000000
      4        -15.625615   1.000000
      5        -15.625042   1.000000
      6        -15.624962   1.000000
      7        -13.372692   1.000000
      8        -13.148054   1.000000
      9        -13.041651   1.000000
     10         -7.166639   1.000000
     11         -7.157149   1.000000
     12         -7.145944   1.000000
     13         -6.954155   1.000000
     14         -2.914728   1.000000
     15         -1.894296   1.000000
     16         -1.782759   1.000000
     17         -1.357474   1.000000
     18         -1.131199   1.000000
     19         -1.087904   1.000000
     20         -0.995533   1.000000
     21         -0.661579   1.000000
     22         -0.426774   1.000000
     23          4.086719   0.000000
     24          4.176291   0.000000
     25          5.749219   0.000000
     26          6.012971   0.000000
     27          6.275637   0.000000
     28          6.533167   0.000000
     29          6.865947   0.000000
     30          7.034419   0.000000
 
  0.4166667E+00  0.3333333E+00  0.0000000E+00  0.1388889E-01
      1        -20.370142   1.000000
      2        -15.736312   1.000000
      3        -15.686737   1.000000
      4        -15.625701   1.000000
      5        -15.625195   1.000000
      6        -15.625073   1.000000
      7        -13.327385   1.000000
      8        -13.188618   1.000000
      9        -13.061127   1.000000
     10         -7.166816   1.000000
     11         -7.161356   1.000000
     12         -7.144406   1.000000
     13         -7.045691   1.000000
     14         -2.890379   1.000000
     15         -1.785630   1.000000
     16         -1.737146   1.000000
     17         -1.305356   1.000000
     18         -1.153415   1.000000
     19         -1.116054   1.000000
     20         -1.013750   1.000000
     21         -0.629932   1.000000
     22         -0.167027   1.000000
     23          3.521066   0.000000
     24          4.068585   0.000000
     25          5.967035   0.000000
     26          6.014955   0.000000
     27          6.388795   0.000000
     28          6.678636   0.000000
     29          6.963052   0.000000
     30          7.001786   0.000000
 
  0.5000000E+00  0.3333333E+00  0.0000000E+00  0.6944444E-02
      1        -20.370088   1.000000
      2        -15.735680   1.000000
      3        -15.683438   1.000000
      4        -15.625757   1.000000
      5        -15.625303   1.000000
      6        -15.625059   1.000000
      7        -13.296991   1.000000
      8        -13.219266   1.000000
      9        -13.066291   1.000000
     10         -7.165190   1.000000
     11         -7.164624   1.000000
     12         -7.143831   1.000000
     13         -7.077502   1.000000
     14         -2.881223   1.000000
     15         -1.774300   1.000000
     16         -1.718299   1.000000
     17         -1.267557   1.000000
     18         -1.163867   1.000000
     19         -1.124238   1.000000
     20         -1.023684   1.000000
     21         -0.620923   1.000000
     22         -0.028821   1.000000
     23          3.272015   0.000000
     24          4.043485   0.000000
     25          5.951095   0.000000
     26          6.266497   0.000000
     27          6.287071   0.000000
     28          6.632655   0.000000
     29          6.986846   0.000000
     30          7.202100   0.000000
 
  0.4166667E+00  0.4166667E+00  0.0000000E+00  0.6944444E-02
      1        -20.369993   1.000000
      2        -15.733595   1.000000
      3        -15.678754   1.000000
      4        -15.625816   1.000000
      5        -15.625173   1.000000
      6        -15.625155   1.000000
      7        -13.284985   1.000000
      8        -13.200350   1.000000
      9        -13.105898   1.000000
     10         -7.168723   1.000000
     11         -7.165677   1.000000