    2    2    1    1
  0.2254527E+02  0.3995153E-09  0.3995153E-09  0.3995153E-09  0.5000000E-15
  1.000000000000000E-004
  CAR 
 diamond GaAs                            
      8     56     48
 
  0.0000000E+00  0.0000000E+00  0.0000000E+00  0.7513148E-03
    1       -9.955587   1.000000
    2        2.763544   1.000000
    3        2.763544   1.000000
    4        2.763545   1.000000
    5        3.356470   0.000000
    6        6.530433   0.000000
    7        6.530433   0.000000
    8        6.530434   0.000000
    9       10.385827   0.000000
   10       12.875163   0.000000
   11       12.875163   0.000000
   12       14.310676   0.000000
   13       14.310676   0.000000
   14       14.310677   0.000000
   15       17.314199   0.000000
   16       28.143468   0.000000
   17       28.143473   0.000000
   18       28.143473   0.000000
   19       28.426135   0.000000
   20       28.426139   0.000000
   21       28.426139   0.000000
   22       29.497659   0.000000
   23       29.497659   0.000000
   24       29.723770   0.000000
   25       29.723770   0.000000
   26       29.723785   0.000000
   27       37.849645   0.000000
   28       39.764442   0.000000
   29       39.764484   0.000000
   30       39.764484   0.000000
   31       41.575410   0.000000
   32       41.575411   0.000000
   33       42.924169   0.000000
   34       43.014191   0.000000
   35       43.014210   0.000000
   36       43.014210   0.000000
   37       43.285668   0.000000
   38       43.285717   0.000000
   39       43.285717   0.000000
   40       43.458219   0.000000
   41       43.458219   0.000000
   42       44.414475   0.000000
   43       44.414477   0.000000
   44       44.414496   0.000000
   45       45.350042   0.000000
   46       45.350077   0.000000
   47       45.350077   0.000000
   48       45.950007   0.000000
 
  0.9090909E-01  0.0000000E+00  0.0000000E+00  0.6010518E-02
    1       -9.866022   1.000000
    2        1.429514   1.000000
    3        2.629888   1.000000
    4        2.629890   1.000000
    5        4.236784   0.000000
    6        6.727367   0.000000
    7        6.728931   0.000000
    8        6.728932   0.000000
    9       10.933647   0.000000
   10       12.286396   0.000000
   11       12.286396   0.000000
   12       13.862739   0.000000
   13       15.260319   0.000000
   14       15.260320   0.000000
   15       18.138717   0.000000
   16       25.929036   0.000000
   17       25.986479   0.000000
   18       25.986482   0.000000
   19       28.739287   0.000000
   20       28.739294   0.000000
   21       29.033681   0.000000
   22       29.033690   0.000000
   23       29.806330   0.000000
   24       30.284324   0.000000
   25       32.331256   0.000000
   26       32.331262   0.000000
   27       37.234060   0.000000
   28       38.880811   0.000000
   29       38.887130   0.000000
   30       38.887158   0.000000
   31       39.735545   0.000000
   32       39.735563   0.000000
   33       41.366325   0.000000
   34       41.366333   0.000000
   35       41.954369   0.000000
   36       42.715411   0.000000
   37       43.065013   0.000000
   38       43.065049   0.000000
   39       43.262047   0.000000
   40       44.012807   0.000000
   41       44.012834   0.000000
   42       44.452744   0.000000
   43       45.268445   0.000000
   44       45.268470   0.000000
   45       45.884098   0.000000
   46       46.403479   0.000000
   47       46.403505   0.000000
   48       47.730613   0.000000
 
  0.1818182E+00  0.0000000E+00  0.0000000E+00  0.6010518E-02
    1       -9.604815   1.000000
    2       -0.211480   1.000000
    3        2.328659   1.000000
    4        2.328661   1.000000
    5        4.433254   0.000000
    6        7.147950   0.000000
    7        7.147951   0.000000
    8        7.695860   0.000000
    9       11.759742   0.000000
   10       11.759743   0.000000
   11       11.819779   0.000000
   12       13.682532   0.000000
   13       16.946168   0.000000
   14       16.946169   0.000000
   15       19.887046   0.000000
   16       23.300762   0.000000
   17       23.300764   0.000000
   18       23.492834   0.000000
   19       29.005005   0.000000
   20       29.005012   0.000000
   21       29.198641   0.000000
   22       29.198650   0.000000
   23       30.057187   0.000000
   24       31.743637   0.000000
   25       34.320802   0.000000
   26       35.150593   0.000000
   27       35.150599   0.000000
   28       36.383737   0.000000
   29       36.383749   0.000000
   30       38.055538   0.000000
   31       38.055567   0.000000
   32       39.415868   0.000000
   33       39.471355   0.000000
   34       39.471368   0.000000
   35       40.707015   0.000000
   36       40.746425   0.000000
   37       42.739010   0.000000
   38       42.739044   0.000000
   39       42.831209   0.000000
   40       43.924950   0.000000
   41       44.427986   0.000000
   42       44.428016   0.000000
   43       45.465604   0.000000
   44       47.237649   0.000000
   45       47.237672   0.000000
   46       48.372689   0.000000
   47       48.372730   0.000000
   48       48.723581   0.000000
 
  0.2727273E+00  0.0000000E+00  0.0000000E+00  0.6010518E-02
    1       -9.200775   1.000000
    2       -1.735789   1.000000
    3        2.012244   1.000000
    4        2.012245   1.000000
    5        4.195883   0.000000
    6        7.443140   0.000000
    7        7.443141   0.000000
    8        9.130286   0.000000
    9       11.654825   0.000000
   10       11.906354   0.000000
   11       11.906355   0.000000
   12       15.183254   0.000000
   13       18.897696   0.000000
   14       18.897696   0.000000
   15       20.811653   0.000000
   16       20.811654   0.000000
   17       21.034122   0.000000
   18       22.248194   0.000000
   19       29.326151   0.000000
   20       29.326158   0.000000
   21       29.507444   0.000000
   22       29.507452   0.000000
   23       30.438524   0.000000
   24       30.983500   0.000000
   25       32.756022   0.000000
   26       32.756028   0.000000
   27       32.830403   0.000000
   28       36.711122   0.000000
   29       36.711148   0.000000
   30       37.220282   0.000000
   31       37.220299   0.000000
   32       37.741451   0.000000
   33       38.979493   0.000000
   34       39.612822   0.000000
   35       39.665467   0.000000
   36       39.665475   0.000000
   37       42.536646   0.000000
   38       42.536680   0.000000
   39       42.686259   0.000000
   40       44.149674   0.000000
   41       44.452603   0.000000
   42       44.452629   0.000000
   43       45.160453   0.000000
   44       48.982826   0.000000
   45       48.982856   0.000000
   46       49.969770   0.000000
   47       49.969802   0.000000
   48       50.830316   0.000000
 
  0.3636364E+00  0.0000000E+00  0.0000000E+00  0.6010518E-02
    1       -8.728899   1.000000
    2       -2.986183   1.000000
    3        1.770230   1.000000
    4        1.770231   1.000000
    5        3.957285   0.000000
    6        7.484764   0.000000
    7        7.484766   0.000000
    8       10.352649   0.000000
    9       11.673843   0.000000
   10       12.804779   0.000000
   11       12.804780   0.000000
   12       16.553046   0.000000
   13       18.349919   0.000000
   14       18.349920   0.000000
   15       19.891085   0.000000
   16       21.283717   0.000000
   17       21.283719   0.000000
   18       24.617704   0.000000
   19       27.865819   0.000000
   20       28.965168   0.000000
   21       28.965171   0.000000
   22       29.835607   0.000000
   23       29.835616   0.000000
   24       30.486708   0.000000
   25       30.486716   0.000000
   26       30.869078   0.000000
   27       32.849195   0.000000
   28       35.446653   0.000000
   29       35.680392   0.000000
   30       35.680417   0.000000
   31       36.177381   0.000000
   32       36.177399   0.000000
   33       37.644394   0.000000
   34       38.423964   0.000000
   35       42.346629   0.000000
   36       42.409400   0.000000
   37       42.409430   0.000000
   38       42.762320   0.000000
   39       42.762339   0.000000
   40       44.495449   0.000000
   41       44.495469   0.000000
   42       44.868501   0.000000
   43       46.739938   0.000000
   44       50.064827   0.000000
   45       50.064864   0.000000
   46       52.127641   0.000000
   47       52.127664   0.000000
   48       52.203270   0.000000
 
  0.4545455E+00  0.0000000E+00  0.0000000E+00  0.6010518E-02
    1       -8.365833   1.000000
    2       -3.746939   1.000000
    3        1.641945   1.000000
    4        1.641946   1.000000
    5        3.825854   0.000000
    6        7.436191   0.000000
    7        7.436192   0.000000
    8       10.529170   0.000000
    9       12.853544   0.000000
   10       14.178179   0.000000
   11       14.178179   0.000000
   12       15.682995   0.000000
   13       16.358844   0.000000
   14       16.358844   0.000000
   15       21.448455   0.000000
   16       23.725085   0.000000
   17       23.725087   0.000000
   18       24.715206   0.000000
   19       26.428097   0.000000
   20       26.428100   0.000000
   21       27.534115   0.000000
   22       30.088685   0.000000
   23       30.088698   0.000000
   24       30.444400   0.000000
   25       30.444407   0.000000
   26       30.562014   0.000000
   27       31.180296   0.000000
   28       35.107930   0.000000
   29       35.107952   0.000000
   30       35.332897   0.000000
   31       35.435046   0.000000
   32       35.435066   0.000000
   33       36.874125   0.000000
   34       37.462675   0.000000
   35       42.168020   0.000000
   36       42.469962   0.000000
   37       42.470003   0.000000
   38       43.536261   0.000000
   39       43.536281   0.000000
   40       44.836432   0.000000
   41       47.022643   0.000000
   42       47.022663   0.000000
   43       49.452703   0.000000
   44       50.310294   0.000000
   45       50.310322   0.000000
   46       52.489207   0.000000
   47       52.489233   0.000000
   48       52.540991   0.000000
 
  0.9090909E-01  0.9090909E-01  0.0000000E+00  0.4507889E-02
    1       -9.835990   1.000000
    2        1.385827   1.000000
    3        2.375350   1.000000
    4        2.375351   1.000000
    5        4.685519   0.000000
    6        6.122660   0.000000
    7        7.079994   0.000000
    8        7.079995   0.000000
    9       11.067088   0.000000
   10       11.496616   0.000000
   11       13.006036   0.000000
   12       14.591222   0.000000
   13       14.591223   0.000000
   14       15.237211   0.000000
   15       18.553523   0.000000
   16       25.536554   0.000000
   17       25.536555   0.000000
   18       26.725627   0.000000
   19       26.734911   0.000000
   20       28.290204   0.000000
   21       29.175870   0.000000
   22       29.175883   0.000000
   23       30.653723   0.000000
   24       31.908336   0.000000
   25       31.908341   0.000000
   26       32.694540   0.000000
   27       37.421198   0.000000
   28       37.875871   0.000000
   29       37.875885   0.000000
   30       38.585827   0.000000
   31       39.673702   0.000000
   32       40.361473   0.000000
   33       41.061918   0.000000
   34       41.601898   0.000000
   35       41.601925   0.000000
   36       42.633190   0.000000
   37       42.633224   0.000000
   38       42.634008   0.000000
   39       42.952155   0.000000
   40       43.734057   0.000000
   41       44.691061   0.000000
   42       44.691086   0.000000
   43       45.459234   0.000000
   44       46.011288   0.000000
   45       46.294108   0.000000
   46       46.294135   0.000000
   47       46.904905   0.000000
   48       47.690698   0.000000
 
  0.1818182E+00  0.9090909E-01  0.0000000E+00  0.1803156E-01
    1       -9.631263   1.000000
    2        0.149459   1.000000
    3        2.017780   1.000000
    4        2.097566   1.000000
    5        5.117305   0.000000
    6        6.152999   0.000000
    7        7.617868   0.000000
    8        7.769569   0.000000
    9       10.799833   0.000000
   10       12.074425   0.000000
   11       12.708672   0.000000
   12       14.203698   0.000000
   13       15.706938   0.000000
   14       16.678857   0.000000
   15       20.084887   0.000000
   16       23.210514   0.000000
   17       23.343680   0.000000
   18       25.788082   0.000000
   19       26.455715   0.000000
   20       27.090654   0.000000
   21       29.403093   0.000000
   22       30.027244   0.000000
   23       31.998753   0.000000
   24       32.410789   0.000000
   25       33.798272   0.000000
   26       34.880902   0.000000
   27       35.409347   0.000000
   28       36.267367   0.000000
   29       36.397367   0.000000
   30       37.352432   0.000000
   31       38.356730   0.000000
   32       38.491682   0.000000
   33       40.210490   0.000000
   34       40.260604   0.000000
   35       40.678226   0.000000
   36       41.872025   0.000000
   37       41.900748   0.000000
   38       42.867560   0.000000
   39       44.001614   0.000000
   40       44.057924   0.000000
   41       44.458571   0.000000
   42       44.757102   0.000000
   43       45.498953   0.000000
   44       46.416028   0.000000
   45       47.310059   0.000000
   46       47.551304   0.000000
   47       48.041839   0.000000
   48       48.481329   0.000000
 
  0.2727273E+00  0.9090909E-01  0.0000000E+00  0.1803156E-01
    1       -9.272180   1.000000
    2       -1.305544   1.000000
    3        1.699879   1.000000
    4        1.723276   1.000000
    5        4.975951   0.000000
    6        6.705933   0.000000
    7        8.002353   0.000000
    8        8.545222   0.000000
    9       11.010720   0.000000
   10       12.517016   0.000000
   11       12.673608   0.000000
   12       14.813100   0.000000
   13       17.503552   0.000000
   14       18.681311   0.000000
   15       20.666521   0.000000
   16       20.902633   0.000000
   17       22.040167   0.000000
   18       23.687153   0.000000
   19       26.728837   0.000000
   20       27.128823   0.000000
   21       29.756617   0.000000
   22       30.281542   0.000000
   23       31.527638   0.000000
   24       32.694934   0.000000
   25       33.144934   0.000000
   26       33.788708   0.000000
   27       34.467685   0.000000
   28       35.221658   0.000000
   29       35.373371   0.000000
   30       37.055173   0.000000
   31       37.557677   0.000000
   32       37.999467   0.000000
   33       39.341252   0.000000
   34       39.397186   0.000000
   35       39.832282   0.000000
   36       41.147269   0.000000
   37       41.494627   0.000000
   38       42.584416   0.000000
   39       43.077543   0.000000
   40       43.880754   0.000000
   41       44.732529   0.000000
   42       45.281344   0.000000
   43       46.747686   0.000000
   44       46.863144   0.000000
   45       48.282817   0.000000
   46       48.520203   0.000000
   47       48.766885   0.000000
   48       50.350498   0.000000
 
  0.3636364E+00  0.9090909E-01  0.0000000E+00  0.1803156E-01
    1       -8.813933   1.000000
    2       -2.608592   1.000000
    3        1.342274   1.000000
    4        1.494430   1.000000
    5        4.732756   0.000000
    6        7.064264   0.000000
    7        8.040386   0.000000
    8        9.422735   0.000000
    9       11.817893   0.000000
   10       12.569803   0.000000
   11       13.384342   0.000000
   12       16.232728   0.000000
   13       18.163596   0.000000
   14       19.120680   0.000000
   15       19.754037   0.000000
   16       20.853784   0.000000
   17       21.415362   0.000000
   18       24.521176   0.000000
   19       27.100359   0.000000
   20       27.464515   0.000000
   21       28.215685   0.000000
   22       29.877735   0.000000
   23       30.146817   0.000000
   24       31.269307   0.000000
   25       31.592158   0.000000
   26       33.190092   0.000000
   27       33.642323   0.000000
   28       33.973769   0.000000
   29       34.227604   0.000000
   30       36.161257   0.000000
   31       36.901901   0.000000
   32       37.034724   0.000000
   33       39.034789   0.000000
   34       39.890872   0.000000
   35       40.276531   0.000000
   36       40.612605   0.000000
   37       42.218540   0.000000
   38       42.609341   0.000000
   39       43.150974   0.000000
   40       44.945811   0.000000
   41       45.041712   0.000000
   42       45.780273   0.000000
   43       47.860439   0.000000
   44       48.147479   0.000000
   45       48.991474   0.000000
   46       49.688089   0.000000
   47       51.119174   0.000000
   48       52.652076   0.000000
 
  0.4545455E+00  0.9090909E-01  0.0000000E+00  0.1803156E-01
    1       -8.391739   1.000000
    2       -3.534057   1.000000
    3        1.050177   1.000000
    4        1.430153   1.000000
    5        4.562207   0.000000
    6        7.151198   0.000000
    7        7.881414   0.000000
    8       10.454637   0.000000
    9       12.110693   0.000000
   10       13.800135   0.000000
   11       14.575379   0.000000
   12       15.579364   0.000000
   13       16.203137   0.000000
   14       18.619290   0.000000
   15       20.754028   0.000000
   16       22.068064   0.000000
   17       23.558850   0.000000
   18       25.072650   0.000000
   19       26.794682   0.000000
   20       27.275606   0.000000
   21       27.319131   0.000000
   22       28.069326   0.000000
   23       28.683814   0.000000
   24       30.632599   0.000000
   25       31.346757   0.000000
   26       32.104530   0.000000
   27       32.747877   0.000000
   28       33.159534   0.000000
   29       33.549260   0.000000
   30       35.608718   0.000000
   31       36.001764   0.000000
   32       36.564861   0.000000
   33       38.945331   0.000000
   34       39.163869   0.000000
   35       39.434028   0.000000
   36       41.666726   0.000000
   37       41.823133   0.000000
   38       44.304199   0.000000
   39       44.851053   0.000000
   40       45.276036   0.000000
   41       46.841906   0.000000
   42       47.645838   0.000000
   43       48.383554   0.000000
   44       48.975379   0.000000
   45       50.045374   0.000000
   46       50.898724   0.000000
   47       51.832669   0.000000
   48       52.325078   0.000000
 
 -0.4545455E+00  0.9090909E-01  0.0000000E+00  0.1803156E-01
    1       -8.252714   1.000000
    2       -3.799992   1.000000
    3        0.890218   1.000000
    4        1.510822   1.000000
    5        4.508519   0.000000
    6        7.243511   0.000000
    7        7.718558   0.000000
    8       10.844759   0.000000
    9       12.788694   0.000000
   10       13.916135   0.000000
   11       13.934501   0.000000
   12       15.723895   0.000000
   13       16.706873   0.000000
   14       17.115236   0.000000
   15       21.810319   0.000000
   16       23.569864   0.000000
   17       24.157552   0.000000
   18       24.592751   0.000000
   19       25.693017   0.000000
   20       26.287406   0.000000
   21       27.709304   0.000000
   22       28.067892   0.000000
   23       29.050026   0.000000
   24       30.136176   0.000000
   25       30.704919   0.000000
   26       31.659393   0.000000
   27       32.612605   0.000000
   28       32.682710   0.000000
   29       33.683838   0.000000
   30       35.690489   0.000000
   31       35.745237   0.000000
   32       36.587724   0.000000
   33       38.862534   0.000000
   34       39.038626   0.000000
   35       39.187429   0.000000
   36       41.235993   0.000000
   37       41.727375   0.000000
   38       45.021030   0.000000
   39       45.179980   0.000000
   40       46.958460   0.000000
   41       47.356013   0.000000
   42       47.620576   0.000000
   43       48.765945   0.000000
   44       49.322267   0.000000
   45       50.445062   0.000000
   46       50.723463   0.000000
   47       51.469166   0.000000
   48       52.683435   0.000000
 
 -0.3636364E+00  0.9090909E-01  0.0000000E+00  0.1803156E-01
    1       -8.516393   1.000000
    2       -3.279842   1.000000
    3        0.884801   1.000000
    4        1.722692   1.000000
    5        4.579584   0.000000
    6        7.420192   0.000000
    7        7.605338   0.000000
    8       10.422433   0.000000
    9       12.164029   0.000000
   10       12.409998   0.000000
   11       14.624242   0.000000
   12       15.473483   0.000000
   13       17.829747   0.000000
   14       18.677423   0.000000
   15       19.986386   0.000000
   16       21.316325   0.000000
   17       23.113050   0.000000
   18       25.730362   0.000000
   19       26.827668   0.000000
   20       26.986785   0.000000
   21       27.855434   0.000000
   22       27.884836   0.000000
   23       29.552049   0.000000
   24       30.487554   0.000000
   25       31.074792   0.000000
   26       32.905854   0.000000
   27       33.129243   0.000000
   28       33.310042   0.000000
   29       33.597458   0.000000
   30       35.905937   0.000000
   31       36.216719   0.000000
   32       36.713553   0.000000
   33       39.172499   0.000000
   34       39.334166   0.000000
   35       39.773328   0.000000
   36       41.018686   0.000000
   37       41.717898   0.000000
   38       43.171805   0.000000
   39       44.986841   0.000000
   40       45.439814   0.000000
   41       46.091239   0.000000
   42       46.469673   0.000000
   43       47.391452   0.000000
   44       49.135140   0.000000
   45       51.192241   0.000000
   46       51.490046   0.000000
   47       52.255578   0.000000
   48       53.429453   0.000000
 
 -0.2727273E+00  0.9090909E-01  0.0000000E+00  0.1803156E-01
    1       -8.973466   1.000000
    2       -2.201592   1.000000
    3        1.048036   1.000000
    4        2.032602   1.000000
    5        4.756263   0.000000
    6        7.454869   0.000000
    7        7.550358   0.000000
    8        9.271342   0.000000
    9       11.370070   0.000000
   10       12.084491   0.000000
   11       13.461444   0.000000
   12       15.753613   0.000000
   13       18.406850   0.000000
   14       18.721172   0.000000
   15       20.452671   0.000000
   16       21.143390   0.000000
   17       21.279476   0.000000
   18       23.529562   0.000000
   19       26.847024   0.000000
   20       27.565385   0.000000
   21       29.662818   0.000000
   22       29.896316   0.000000
   23       30.566378   0.000000
   24       30.727443   0.000000
   25       32.623316   0.000000
   26       33.221674   0.000000
   27       33.891374   0.000000
   28       34.365861   0.000000
   29       34.386046   0.000000
   30       36.972112   0.000000
   31       37.174052   0.000000
   32       37.887520   0.000000
   33       39.537166   0.000000
   34       39.754295   0.000000
   35       39.954173   0.000000
   36       40.602528   0.000000
   37       41.229410   0.000000
   38       41.377699   0.000000
   39       42.635741   0.000000
   40       44.697094   0.000000
   41       45.701541   0.000000
   42       46.215871   0.000000
   43       46.771726   0.000000
   44       47.420453   0.000000
   45       48.942951   0.000000
   46       50.102329   0.000000
   47       51.360998   0.000000
   48       51.480665   0.000000
 
 -0.1818182E+00  0.9090909E-01  0.0000000E+00  0.1803156E-01
    1       -9.407993   1.000000
    2       -0.842200   1.000000
    3        1.394837   1.000000
    4        2.374560   1.000000
    5        4.946494   0.000000
    6        7.135281   0.000000
    7        7.186774   0.000000
    8        8.374384   0.000000
    9       11.053469   0.000000
   10       11.953591   0.000000
   11       12.783323   0.000000
   12       14.510561   0.000000
   13       16.559328   0.000000
   14       18.598324   0.000000
   15       20.651109   0.000000
   16       21.106132   0.000000
   17       23.466856   0.000000
   18       23.514371   0.000000
   19       26.469031   0.000000
   20       27.274346   0.000000
   21       29.613703   0.000000
   22       30.216701   0.000000
   23       32.499970   0.000000
   24       32.748736   0.000000
   25       33.272486   0.000000
   26       33.977303   0.000000
   27       34.912265   0.000000
   28       35.530731   0.000000
   29       36.212971   0.000000
   30       36.534373   0.000000
   31       37.600061   0.000000
   32       38.697360   0.000000
   33       39.022816   0.000000
   34       40.081201   0.000000
   35       40.502996   0.000000
   36       40.672258   0.000000
   37       41.426128   0.000000
   38       42.209069   0.000000
   39       42.243330   0.000000
   40       44.288837   0.000000
   41       45.504049   0.000000
   42       45.571413   0.000000
   43       45.996394   0.000000
   44       47.073941   0.000000
   45       47.277013   0.000000
   46       47.850452   0.000000
   47       48.975778   0.000000
   48       49.440595   0.000000
 
 -0.9090909E-01  0.9090909E-01  0.0000000E+00  0.9015778E-02
    1       -9.718899   1.000000
    2        0.518031   1.000000
    3        1.964802   1.000000
    4        2.624896   1.000000
    5        4.792459   0.000000
    6        6.655027   0.000000
    7        6.781220   0.000000
    8        7.628879   0.000000
    9       11.443282   0.000000
   10       11.641999   0.000000
   11       12.163723   0.000000
   12       14.486800   0.000000
   13       14.923724   0.000000
   14       16.762598   0.000000
   15       19.281756   0.000000
   16       23.254349   0.000000
   17       25.339520   0.000000
   18       26.063795   0.000000
   19       26.284567   0.000000
   20       27.492035   0.000000
   21       29.339089   0.000000
   22       29.834395   0.000000
   23       31.625331   0.000000
   24       32.297632   0.000000
   25       32.516408   0.000000
   26       34.617947   0.000000
   27       35.858504   0.000000
   28       36.811296   0.000000
   29       37.058431   0.000000
   30       38.274356   0.000000
   31       39.137456   0.000000
   32       39.469014   0.000000
   33       39.725656   0.000000
   34       40.123326   0.000000
   35       41.362101   0.000000
   36       41.515227   0.000000
   37       42.065351   0.000000
   38       43.358565   0.000000
   39       43.862437   0.000000
   40       43.962730   0.000000
   41       44.159370   0.000000
   42       45.277907   0.000000
   43       45.926959   0.000000
   44       46.236222   0.000000
   45       46.638359   0.000000
   46       46.936411   0.000000
   47       47.226733   0.000000
   48       47.463041   0.000000
 
  0.1818182E+00  0.1818182E+00  0.0000000E+00  0.4507889E-02
    1       -9.484790   1.000000
    2       -0.192739   1.000000
    3        1.620708   1.000000
    4        1.620709   1.000000
    5        5.227135   0.000000
    6        6.020941   0.000000
    7        8.312191   0.000000
    8        8.312192   0.000000
    9       10.121871   0.000000
   10       12.767625   0.000000
   11       13.399529   0.000000
   12       15.437285   0.000000
   13       15.437285   0.000000
   14       16.166675   0.000000
   15       21.447371   0.000000
   16       22.822611   0.000000
   17       22.822611   0.000000
   18       24.135288   0.000000
   19       24.461431   0.000000
   20       28.649356   0.000000
   21       29.583441   0.000000
   22       29.583455   0.000000
   23       31.431422   0.000000
   24       34.387418   0.000000
   25       34.387425   0.000000
   26       34.447802   0.000000
   27       35.231491   0.000000
   28       35.231497   0.000000
   29       35.653147   0.000000
   30       35.855460   0.000000
   31       37.771249   0.000000
   32       39.746585   0.000000
   33       39.746608   0.000000
   34       40.302710   0.000000
   35       40.932392   0.000000
   36       41.421311   0.000000
   37       41.421350   0.000000
   38       41.667367   0.000000
   39       42.309165   0.000000
   40       45.247582   0.000000
   41       45.411351   0.000000
   42       45.411373   0.000000
   43       45.628183   0.000000
   44       47.340063   0.000000
   45       47.742569   0.000000
   46       47.742586   0.000000
   47       48.650858   0.000000
   48       48.650885   0.000000
 
  0.2727273E+00  0.1818182E+00  0.0000000E+00  0.1803156E-01
    1       -9.179345   1.000000
    2       -1.195200   1.000000
    3        1.182887   1.000000
    4        1.280710   1.000000
    5        5.203675   0.000000
    6        6.197025   0.000000
    7        8.608963   0.000000
    8        8.894771   0.000000
    9       10.634945   0.000000
   10       13.505309   0.000000
   11       13.669377   0.000000
   12       15.382960   0.000000
   13       16.643656   0.000000
   14       17.862597   0.000000
   15       20.662136   0.000000
   16       20.842678   0.000000
   17       23.243393   0.000000
   18       23.934075   0.000000
   19       24.060026   0.000000
   20       27.081661   0.000000
   21       29.895501   0.000000
   22       30.271348   0.000000
   23       31.142100   0.000000
   24       32.678227   0.000000
   25       32.697077   0.000000
   26       33.698968   0.000000
   27       34.558648   0.000000
   28       35.695305   0.000000
   29       35.874718   0.000000
   30       36.874492   0.000000
   31       37.085735   0.000000
   32       38.615234   0.000000
   33       39.142997   0.000000
   34       39.143734   0.000000
   35       40.614732   0.000000
   36       41.100457   0.000000
   37       41.481438   0.000000
   38       42.885453   0.000000
   39       43.420768   0.000000
   40       43.795800   0.000000
   41       45.195624   0.000000
   42       45.259480   0.000000
   43       46.317854   0.000000
   44       46.917135   0.000000
   45       47.921122   0.000000
   46       47.950735   0.000000
   47       49.689973   0.000000
   48       50.242354   0.000000
 
  0.3636364E+00  0.1818182E+00  0.0000000E+00  0.1803156E-01
    1       -8.756349   1.000000
    2       -2.328321   1.000000