unknown system                          
           1
     5.650000    0.000000    0.000000
     0.000000    5.650000    0.000000
     0.000000    0.000000    5.650000
   Ga   As
     4     4
Direct configuration=     1
   0.00000000  0.00000000  0.00000000
   0.50000000  0.50000000  0.00000000
   0.50000000  0.00000000  0.50000000
   0.00000000  0.50000000  0.50000000
   0.25000000  0.25000000  0.25000000
   0.75000000  0.75000000  0.25000000
   0.75000000  0.25000000  0.75000000
   0.25000000  0.75000000  0.75000000
Direct configuration=     2
   0.00132798  0.00289443  0.00319531
   0.50119140  0.50004538  0.99631250
   0.49920617  0.00093111  0.50335748
   0.99929331  0.49844723  0.49745903
   0.25114453  0.24777316  0.24748163
   0.74740880  0.75239454  0.25095376
   0.74872171  0.24379484  0.74975524
   0.25177678  0.75388017  0.75150755
Direct configuration=     3
   0.00245974  0.00536919  0.00627612
   0.50242514  0.50010434  0.99277027
   0.49829256  0.00171882  0.50634645
   0.99864892  0.49701828  0.49513370
   0.25246382  0.24596901  0.24523730
   0.74495082  0.75457995  0.25182966
   0.74778380  0.23820919  0.74954159
   0.25310192  0.75732341  0.75290144
Direct configuration=     4
   0.00318446  0.00702984  0.00909826
   0.50372501  0.50019402  0.98953155
   0.49714024  0.00223956  0.50858522
   0.99810358  0.49582516  0.49319104
   0.25412734  0.24498783  0.24352250
   0.74275688  0.75636238  0.25257304
   0.74751431  0.23379356  0.74941523
   0.25359761  0.75993463  0.75411135
Direct configuration=     5
   0.00334984  0.00762107  0.01156660
   0.50511426  0.50034163  0.98671465
   0.49566945  0.00241608  0.50980490
   0.99767674  0.49495140  0.49174493
   0.25623479  0.24512281  0.24251770
   0.74094170  0.75756541  0.25313314
   0.74813379  0.23092674  0.74941759
   0.25300505  0.76142474  0.75508877
Direct configuration=     6
   0.00292839  0.00706187  0.01366976
   0.50659954  0.50057517  0.98437001
   0.49388381  0.00223060  0.50992611
   0.99738133  0.49445417  0.49085385
   0.25875360  0.24649190  0.24226876
   0.73957109  0.75807005  0.25349949
   0.74972037  0.22978747  0.74952675
   0.25121690  0.76162867  0.75580336
Direct configuration=     7
   0.00203304  0.00547161  0.01548571
   0.50817147  0.50093274  0.98250455
   0.49186849  0.00173404  0.50909370
   0.99723408  0.49435513  0.49052780
   0.26152040  0.24904699  0.24268015
   0.73866436  0.75779398  0.25368782
   0.75218189  0.23032685  0.74963617
   0.24827819  0.76051169  0.75621837
Direct configuration=     8
   0.00088746  0.00314198  0.01714459
   0.50980336  0.50144548  0.98107200
   0.48976912  0.00101254  0.50762468
   0.99725046  0.49464851  0.49073068
   0.26425650  0.25258711  0.24355461
   0.73819498  0.75672173  0.25374627
   0.75529438  0.23230056  0.74960503
   0.24438486  0.75815932  0.75628425
Direct configuration=     9
   0.99975088  0.00045957  0.01875915
   0.51143312  0.50213264  0.98000255
   0.48776038  0.00017071  0.50592065
   0.99744136  0.49529249  0.49136355
   0.26666196  0.25679784  0.24464329
   0.73809819  0.75490849  0.25374937
   0.75874980  0.23530921  0.74931418
   0.23985349  0.75479411  0.75597288
Direct configuration=    10
   0.99886739  0.99784925  0.02038290
   0.51298270  0.50298318  0.97918837
   0.48598492  0.99930287  0.50437018
   0.99779921  0.49620263  0.49226194
   0.26847318  0.26131626  0.24572247
   0.73827221  0.75247069  0.25379141
   0.76220371  0.23885522  0.74870222
   0.23511373  0.75076578  0.75531705
