 written on  7Nov2022 at 10:18:45 
           8
         165
    3    2    2    2    1    2    3    2    2    3    3    1    3    2    1
    1    2    2    1    1    1    2    3    1    1    1    1    3    1    1
    1    1    1    3    2    2    3    3    2    1    1    2    1    1    1
    1    1    2    1    1    1    1    2    1    1    1    1    1    3    1
    1    1    1    3    2    1    2    2    2    2    1    1    1    2    2
    1    1    1    1    2    1    1    1    1    1    2    1    1    1    1
    2    2    1    1    1    2    2    2    2    1    2    3    1    1    1
    1    3    1    1    1    1    1    2    1    1    1    1    2    1    1
    1    1    1    2    1    1    2    3    3    2    2    3    1    1    1
    1    1    3    1    1    1    1    3    2    1    1    1    2    2    1
    1    2    3    1    3    3    2    2    3    2    1    2    2    2    3
   -3   -1    2    1    1    0.001629   -0.000005
   -3   -1    2    2    1   -0.002044   -0.000020
   -3   -1    2    3    1   -0.007277    0.000010
   -3   -1    2    4    1   -0.007279    0.000005
   -3   -1    2    5    1    0.001759   -0.000004
   -3   -1    2    6    1   -0.007728   -0.000006
   -3   -1    2    7    1   -0.006519   -0.000000
   -3   -1    2    8    1   -0.006522   -0.000001
   -3   -1    2    1    2   -0.006662    0.000022
   -3   -1    2    2    2    0.005499    0.000000
   -3   -1    2    3    2   -0.006668   -0.000018
   -3   -1    2    4    2   -0.006656   -0.000004
   -3   -1    2    5    2   -0.000090    0.000003
   -3   -1    2    6    2    0.006492   -0.000000
   -3   -1    2    7    2   -0.000361   -0.000005
   -3   -1    2    8    2   -0.000359   -0.000002
   -3   -1    2    1    3   -0.007278   -0.000010
   -3   -1    2    2    3   -0.002050    0.000016
   -3   -1    2    3    3    0.001632    0.000004
   -3   -1    2    4    3   -0.007277   -0.000002
   -3   -1    2    5    3   -0.016652    0.000004
   -3   -1    2    6    3   -0.016303    0.000007
   -3   -1    2    7    3   -0.007958    0.000003
   -3   -1    2    8    3   -0.004645    0.000005
   -3   -1    2    1    4   -0.007277   -0.000005
   -3   -1    2    2    4   -0.002038    0.000003
   -3   -1    2    3    4   -0.007275    0.000002
   -3   -1    2    4    4    0.001621    0.000001
   -3   -1    2    5    4   -0.016651    0.000002
   -3   -1    2    6    4   -0.016302    0.000004
   -3   -1    2    7    4   -0.004645    0.000003
   -3   -1    2    8    4   -0.007962    0.000001
   -3   -1    2    1    5   -0.003977    0.000001
   -3   -1    2    2    5   -0.009986   -0.000003
   -3   -1    2    3    5   -0.007778    0.000001
   -3   -1    2    4    5   -0.007780    0.000001
   -3   -1    2    5    5    0.001479    0.000004
   -3   -1    2    6    5   -0.003733    0.000000
   -3   -1    2    7    5   -0.006276   -0.000001
   -3   -1    2    8    5   -0.006276    0.000002
   -3   -1    2    1    6    0.000457    0.000009
   -3   -1    2    2    6   -0.016053   -0.000009
   -3   -1    2    3    6   -0.006319    0.000000
   -3   -1    2    4    6   -0.006323   -0.000002
   -3   -1    2    5    6   -0.006566    0.000002
   -3   -1    2    6    6   -0.010282   -0.000000
   -3   -1    2    7    6   -0.006565   -0.000001
   -3   -1    2    8    6   -0.006567   -0.000000
   -3   -1    2    1    7   -0.002505   -0.000003
   -3   -1    2    2    7   -0.003968   -0.000001
   -3   -1    2    3    7    0.007339   -0.000004
   -3   -1    2    4    7   -0.017733   -0.000000
   -3   -1    2    5    7   -0.006275    0.000002
   -3   -1    2    6    7   -0.003733   -0.000000
   -3   -1    2    7    7    0.001478   -0.000003
   -3   -1    2    8    7   -0.006275   -0.000003
   -3   -1    2    1    8   -0.002506    0.000001
   -3   -1    2    2    8   -0.003964   -0.000005
   -3   -1    2    3    8   -0.017733    0.000002
   -3   -1    2    4    8    0.007335   -0.000001
   -3   -1    2    5    8   -0.006277    0.000004
   -3   -1    2    6    8   -0.003734   -0.000000
   -3   -1    2    7    8   -0.006278   -0.000004
   -3   -1    2    8    8    0.001480   -0.000001
   -3    0    1    1    1   -0.007587   -0.000002
   -3    0    1    2    1   -0.004335   -0.000024
   -3    0    1    3    1    0.003118    0.000009
   -3    0    1    4    1   -0.012399    0.000000
   -3    0    1    5    1    0.021453   -0.000009
   -3    0    1    6    1    0.011115   -0.000007
   -3    0    1    7    1   -0.010551   -0.000005
   -3    0    1    8    1   -0.002632   -0.000004
   -3    0    1    1    2    0.003620    0.000025
   -3    0    1    2    2   -0.012187    0.000009
   -3    0    1    3    2    0.010348   -0.000030
   -3    0    1    4    2    0.003626   -0.000005
   -3    0    1    5    2    0.007596    0.000005
   -3    0    1    6    2   -0.001821   -0.000006
   -3    0    1    7    2    0.010944   -0.000003
   -3    0    1    8    2    0.002329   -0.000007
   -3    0    1    1    3   -0.001429   -0.000002
   -3    0    1    2    3    0.006214    0.000032
   -3    0    1    3    3    0.001333   -0.000003
   -3    0    1    4    3   -0.001424   -0.000003
   -3    0    1    5    3   -0.018532    0.000015
   -3    0    1    6    3   -0.011446    0.000009
   -3    0    1    7    3   -0.012996    0.000006
   -3    0    1    8    3    0.007963    0.000009
   -3    0    1    1    4   -0.012401    0.000001
   -3    0    1    2    4   -0.004328    0.000009
   -3    0    1    3    4    0.003121    0.000002
   -3    0    1    4    4   -0.007592   -0.000002
   -3    0    1    5    4   -0.014639    0.000010
   -3    0    1    6    4   -0.016499    0.000005
   -3    0    1    7    4    0.005846    0.000012
   -3    0    1    8    4   -0.003330    0.000002
   -3    0    1    1    5    0.000193    0.000003
   -3    0    1    2    5   -0.006960   -0.000005
   -3    0    1    3    5    0.008293    0.000001
   -3    0    1    4    5   -0.015404   -0.000002
   -3    0    1    5    5    0.005070    0.000001
   -3    0    1    6    5    0.002664   -0.000001
   -3    0    1    7    5   -0.003278   -0.000006
   -3    0    1    8    5   -0.004445   -0.000002
   -3    0    1    1    6    0.006949    0.000010
   -3    0    1    2    6    0.000459   -0.000002
   -3    0    1    3    6    0.006947   -0.000008
   -3    0    1    4    6   -0.013652    0.000001
   -3    0    1    5    6    0.000764   -0.000002
   -3    0    1    6    6   -0.012259   -0.000004
   -3    0    1    7    6    0.007491   -0.000006
   -3    0    1    8    6    0.000764   -0.000007
   -3    0    1    1    7    0.008294    0.000000
   -3    0    1    2    7   -0.006962    0.000002
   -3    0    1    3    7    0.000191   -0.000001
   -3    0    1    4    7   -0.015403    0.000002
   -3    0    1    5    7   -0.004137    0.000011
   -3    0    1    6    7   -0.010836    0.000008
   -3    0    1    7    7   -0.002156   -0.000001
   -3    0    1    8    7   -0.004136    0.000003
   -3    0    1    1    8    0.002688    0.000003
   -3    0    1    2    8    0.001065    0.000001
   -3    0    1    3    8    0.002686   -0.000003
   -3    0    1    4    8    0.043424   -0.000002
   -3    0    1    5    8   -0.004445    0.000010
   -3    0    1    6    8    0.002665    0.000006
   -3    0    1    7    8   -0.003279   -0.000004
   -3    0    1    8    8    0.005074    0.000001
   -3    0    2    1    1    0.001331    0.000004
   -3    0    2    2    1    0.006224   -0.000039
   -3    0    2    3    1   -0.001429    0.000003
   -3    0    2    4    1   -0.001426    0.000003
   -3    0    2    5    1   -0.005348   -0.000009
   -3    0    2    6    1   -0.004872   -0.000013
   -3    0    2    7    1   -0.004960   -0.000015
   -3    0    2    8    1   -0.004961   -0.000014
   -3    0    2    1    2    0.010357    0.000036
   -3    0    2    2    2   -0.012186   -0.000011
   -3    0    2    3    2    0.003612   -0.000020
   -3    0    2    4    2    0.003625   -0.000003
   -3    0    2    5    2   -0.005242    0.000009
   -3    0    2    6    2   -0.004986    0.000000
   -3    0    2    7    2   -0.005243   -0.000008
   -3    0    2    8    2   -0.005241   -0.000002
   -3    0    2    1    3    0.003117   -0.000009
   -3    0    2    2    3   -0.004342    0.000018
   -3    0    2    3    3   -0.007586    0.000003
   -3    0    2    4    3   -0.012396   -0.000000
   -3    0    2    5    3   -0.004962    0.000013
   -3    0    2    6    3   -0.004874    0.000011
   -3    0    2    7    3   -0.005349    0.000007
   -3    0    2    8    3   -0.004963    0.000011
   -3    0    2    1    4    0.003118   -0.000004
   -3    0    2    2    4   -0.004327   -0.000000
   -3    0    2    3    4   -0.012400   -0.000001
   -3    0    2    4    4   -0.007592    0.000002
   -3    0    2    5    4   -0.004959    0.000004
   -3    0    2    6    4   -0.004871    0.000002
   -3    0    2    7    4   -0.004959    0.000001
   -3    0    2    8    4   -0.005349    0.000001
   -3    0    2    1    5    0.005012    0.000012
   -3    0    2    2    5    0.011879   -0.000012
   -3    0    2    3    5   -0.022824   -0.000006
   -3    0    2    4    5   -0.022821   -0.000003
   -3    0    2    5    5   -0.002154    0.000001
   -3    0    2    6    5   -0.010835   -0.000009
   -3    0    2    7    5   -0.004137   -0.000010
   -3    0    2    8    5   -0.004135   -0.000006
   -3    0    2    1    6    0.011838    0.000012
   -3    0    2    2    6    0.005013   -0.000012
   -3    0    2    3    6   -0.022826    0.000006
   -3    0    2    4    6   -0.022826    0.000003
   -3    0    2    5    6    0.007493    0.000007
   -3    0    2    6    6   -0.012257    0.000005
   -3    0    2    7    6    0.000766    0.000004
   -3    0    2    8    6    0.000765    0.000006
   -3    0    2    1    7   -0.005054    0.000005
   -3    0    2    2    7   -0.005082   -0.000002
   -3    0    2    3    7    0.013459   -0.000004
   -3    0    2    4    7    0.003333    0.000001
   -3    0    2    5    7   -0.003277    0.000007
   -3    0    2    6    7    0.002662   -0.000001
   -3    0    2    7    7    0.005066   -0.000002
   -3    0    2    8    7   -0.004447   -0.000002
   -3    0    2    1    8   -0.005055    0.000009
   -3    0    2    2    8   -0.005077   -0.000012
   -3    0    2    3    8    0.003333   -0.000001
   -3    0    2    4    8    0.013464    0.000004
   -3    0    2    5    8   -0.003278    0.000006
   -3    0    2    6    8    0.002665   -0.000005
   -3    0    2    7    8   -0.004447   -0.000008
   -3    0    2    8    8    0.005074   -0.000001
   -3    1    0    1    1   -0.007570    0.000005
   -3    1    0    2    1    0.003071   -0.000022
   -3    1    0    3    1   -0.004302    0.000015
   -3    1    0    4    1   -0.012404    0.000003
   -3    1    0    5    1    0.021446    0.000001
   -3    1    0    6    1   -0.010576   -0.000001
   -3    1    0    7    1    0.011101   -0.000001
   -3    1    0    8    1   -0.002628    0.000002
   -3    1    0    1    2   -0.001493    0.000012
   -3    1    0    2    2    0.001472    0.000004
   -3    1    0    3    2    0.006160   -0.000033
   -3    1    0    4    2   -0.001485   -0.000006
   -3    1    0    5    2   -0.018547   -0.000009
   -3    1    0    6    2   -0.012984   -0.000002
   -3    1    0    7    2   -0.011445   -0.000007
   -3    1    0    8    2    0.007973   -0.000018
   -3    1    0    1    3    0.003668   -0.000012
   -3    1    0    2    3    0.010363    0.000030
   -3    1    0    3    3   -0.012332   -0.000009
   -3    1    0    4    3    0.003671   -0.000007
   -3    1    0    5    3    0.007581   -0.000001
   -3    1    0    6    3    0.010909    0.000005
   -3    1    0    7    3   -0.001853    0.000004
   -3    1    0    8    3    0.002325    0.000001
   -3    1    0    1    4   -0.012404   -0.000004
   -3    1    0    2    4    0.003078    0.000012
   -3    1    0    3    4   -0.004301   -0.000000
   -3    1    0    4    4   -0.007576   -0.000001
   -3    1    0    5    4   -0.014635    0.000007
   -3    1    0    6    4    0.005816   -0.000010
   -3    1    0    7    4   -0.016490    0.000010
   -3    1    0    8    4   -0.003336    0.000001
   -3    1    0    1    5    0.000188    0.000003
   -3    1    0    2    5    0.008269   -0.000006
   -3    1    0    3    5   -0.006943    0.000001
   -3    1    0    4    5   -0.015396    0.000003
   -3    1    0    5    5    0.005080   -0.000002
   -3    1    0    6    5   -0.003271    0.000003
   -3    1    0    7    5    0.002658   -0.000004
   -3    1    0    8    5   -0.004434   -0.000004
   -3    1    0    1    6    0.008242    0.000007
   -3    1    0    2    6    0.000163   -0.000001
   -3    1    0    3    6   -0.006931   -0.000005
   -3    1    0    4    6   -0.015386   -0.000003
   -3    1    0    5    6   -0.004124   -0.000007
   -3    1    0    6    6   -0.002136    0.000001
   -3    1    0    7    6   -0.010823   -0.000008
   -3    1    0    8    6   -0.004124   -0.000006
   -3    1    0    1    7    0.006977   -0.000003
   -3    1    0    2    7    0.006968    0.000006
   -3    1    0    3    7    0.000484   -0.000002
   -3    1    0    4    7   -0.013642    0.000001
   -3    1    0    5    7    0.000757    0.000006
   -3    1    0    6    7    0.007500    0.000006
   -3    1    0    7    7   -0.012270    0.000004
   -3    1    0    8    7    0.000757    0.000003
   -3    1    0    1    8    0.002693   -0.000005
   -3    1    0    2    8    0.002651    0.000006
   -3    1    0    3    8    0.001093    0.000000
   -3    1    0    4    8    0.043400   -0.000003
   -3    1    0    5    8   -0.004434   -0.000004
   -3    1    0    6    8   -0.003273    0.000007
   -3    1    0    7    8    0.002659   -0.000002
   -3    1    0    8    8    0.005083   -0.000001
   -3    1    1    1    1    0.007696    0.000005
   -3    1    1    2    1    0.000007   -0.000037
   -3    1    1    3    1    0.000106    0.000023
   -3    1    1    4    1    0.025934    0.000008
   -3    1    1    5    1   -0.003542   -0.000003
   -3    1    1    6    1   -0.001664    0.000003
   -3    1    1    7    1   -0.001689   -0.000011
   -3    1    1    8    1    0.000663   -0.000005
   -3    1    1    1    2   -0.000010    0.000040
   -3    1    1    2    2    0.007844   -0.000002
   -3    1    1    3    2   -0.000020   -0.000032
   -3    1    1    4    2    0.025846   -0.000004
   -3    1    1    5    2    0.002982   -0.000001
   -3    1    1    6    2   -0.007422   -0.000008
   -3    1    1    7    2    0.008694   -0.000010
   -3    1    1    8    2    0.002983   -0.000012
   -3    1    1    1    3    0.000107   -0.000021
   -3    1    1    2    3   -0.000002    0.000028
   -3    1    1    3    3    0.007698   -0.000003
   -3    1    1    4    3    0.025936   -0.000004
   -3    1    1    5    3    0.002950    0.000007
   -3    1    1    6    3    0.008657    0.000010
   -3    1    1    7    3   -0.007496    0.000008
   -3    1    1    8    3    0.002950    0.000005
   -3    1    1    1    4   -0.002607   -0.000009
   -3    1    1    2    4   -0.002680    0.000004
   -3    1    1    3    4   -0.002605    0.000005
   -3    1    1    4    4    0.011010    0.000000
   -3    1    1    5    4    0.000666    0.000005
   -3    1    1    6    4   -0.001662    0.000005
   -3    1    1    7    4   -0.001687    0.000004
   -3    1    1    8    4   -0.003542    0.000003
   -3    1    1    1    5    0.000486    0.000004
   -3    1    1    2    5    0.006969   -0.000009
   -3    1    1    3    5    0.006977    0.000005
   -3    1    1    4    5   -0.013641   -0.000002
   -3    1    1    5    5    0.003542   -0.000000
   -3    1    1    6    5    0.005281    0.000001
   -3    1    1    7    5    0.005285   -0.000006
   -3    1    1    8    5    0.008570   -0.000004
   -3    1    1    1    6   -0.006928    0.000007
   -3    1    1    2    6    0.000163   -0.000002
   -3    1    1    3    6    0.008239   -0.000005
   -3    1    1    4    6   -0.015386    0.000002
   -3    1    1    5    6    0.005274   -0.000002
   -3    1    1    6    6    0.003482    0.000000
   -3    1    1    7    6    0.005274    0.000005
   -3    1    1    8    6    0.008546    0.000002
   -3    1    1    1    7   -0.006941    0.000000
   -3    1    1    2    7    0.008267    0.000002
   -3    1    1    3    7    0.000187   -0.000002
   -3    1    1    4    7   -0.015395   -0.000003
   -3    1    1    5    7    0.005284    0.000005
   -3    1    1    6    7    0.005280   -0.000003
   -3    1    1    7    7    0.003539    0.000000
   -3    1    1    8    7    0.008568    0.000002
   -3    1    1    1    8    0.001093   -0.000001
   -3    1    1    2    8    0.002651   -0.000005
   -3    1    1    3    8    0.002692    0.000004
   -3    1    1    4    8    0.043400    0.000005
   -3    1    1    5    8   -0.001881    0.000002
   -3    1    1    6    8   -0.001873   -0.000001
   -3    1    1    7    8   -0.001882   -0.000001
   -3    1    1    8    8   -0.005286   -0.000000
   -3    1    2    1    1   -0.012335    0.000011
   -3    1    2    2    1    0.010372   -0.000036
   -3    1    2    3    1    0.003666    0.000014
   -3    1    2    4    1    0.003667    0.000010
   -3    1    2    5    1   -0.007494   -0.000010
   -3    1    2    6    1    0.008658   -0.000012
   -3    1    2    7    1    0.002951   -0.000008
   -3    1    2    8    1    0.002950   -0.000007
   -3    1    2    1    2    0.006168    0.000039
   -3    1    2    2    2    0.001474   -0.000004
   -3    1    2    3    2   -0.001499   -0.000008
   -3    1    2    4    2   -0.001485    0.000002
   -3    1    2    5    2    0.008696    0.000012
   -3    1    2    6    2   -0.007419    0.000010
   -3    1    2    7    2    0.002983    0.000005
   -3    1    2    8    2    0.002985    0.000011
   -3    1    2    1    3   -0.004302   -0.000014
   -3    1    2    2    3    0.003064    0.000016
   -3    1    2    3    3   -0.007568   -0.000004
   -3    1    2    4    3   -0.012402   -0.000001
   -3    1    2    5    3   -0.001692    0.000008
   -3    1    2    6    3   -0.001665   -0.000004
   -3    1    2    7    3   -0.003544    0.000001
   -3    1    2    8    3    0.000660    0.000003
   -3    1    2    1    4   -0.004305   -0.000004
   -3    1    2    2    4    0.003079   -0.000003
   -3    1    2    3    4   -0.012401    0.000002
   -3    1    2    4    4   -0.007576   -0.000001
   -3    1    2    5    4   -0.001688    0.000000
   -3    1    2    6    4   -0.001662   -0.000005
   -3    1    2    7    4    0.000665   -0.000003
   -3    1    2    8    4   -0.003544   -0.000001
   -3    1    2    1    5   -0.016057    0.000009
   -3    1    2    2    5    0.000494   -0.000008
   -3    1    2    3    5   -0.006301   -0.000001
   -3    1    2    4    5   -0.006301    0.000002
   -3    1    2    5    5   -0.012269   -0.000005
   -3    1    2    6    5    0.007502   -0.000007
   -3    1    2    7    5    0.000757   -0.000006
   -3    1    2    8    5    0.000758   -0.000004
   -3    1    2    1    6   -0.009982    0.000003
   -3    1    2    2    6   -0.003973   -0.000001
   -3    1    2    3    6   -0.007777   -0.000003
   -3    1    2    4    6   -0.007777    0.000002
   -3    1    2    5    6   -0.010821    0.000009
   -3    1    2    6    6   -0.002133   -0.000001
   -3    1    2    7    6   -0.004123    0.000009
   -3    1    2    8    6   -0.004123    0.000008
   -3    1    2    1    7   -0.003954    0.000002
   -3    1    2    2    7   -0.002504    0.000003
   -3    1    2    3    7    0.007331    0.000002
   -3    1    2    4    7   -0.017721   -0.000001
   -3    1    2    5    7    0.002658    0.000004
   -3    1    2    6    7   -0.003269   -0.000005
   -3    1    2    7    7    0.005078    0.000002
   -3    1    2    8    7   -0.004435    0.000005
   -3    1    2    1    8   -0.003957    0.000004
   -3    1    2    2    8   -0.002500   -0.000002
   -3    1    2    3    8   -0.017721   -0.000001
   -3    1    2    4    8    0.007327    0.000004
   -3    1    2    5    8    0.002657    0.000003
   -3    1    2    6    8   -0.003273   -0.000007
   -3    1    2    7    8   -0.004435    0.000005
   -3    1    2    8    8    0.005081    0.000001
   -3    2   -1    1    1    0.001625    0.000003
   -3    2   -1    2    1   -0.007308   -0.000017
   -3    2   -1    3    1   -0.002012    0.000013
   -3    2   -1    4    1   -0.007278    0.000007
   -3    2   -1    5    1    0.001746    0.000002
   -3    2   -1    6    1   -0.006521   -0.000003
   -3    2   -1    7    1   -0.007727    0.000004
   -3    2   -1    8    1   -0.006541    0.000003
   -3    2   -1    1    2   -0.007333    0.000017
   -3    2   -1    2    2    0.001749   -0.000004
   -3    2   -1    3    2   -0.002071   -0.000016
   -3    2   -1    4    2   -0.007330   -0.000005
   -3    2   -1    5    2   -0.016650   -0.000003
   -3    2   -1    6    2   -0.007914   -0.000002
   -3    2   -1    7    2   -0.016293   -0.000008
   -3    2   -1    8    2   -0.004639   -0.000004
   -3    2   -1    1    3   -0.006632   -0.000014
   -3    2   -1    2    3   -0.006690    0.000018
   -3    2   -1    3    3    0.005377   -0.000000
   -3    2   -1    4    3   -0.006632   -0.000004
   -3    2   -1    5    3   -0.000104   -0.000002
   -3    2   -1    6    3   -0.000372    0.000004
   -3    2   -1    7    3    0.006477    0.000000
   -3    2   -1    8    3   -0.000374    0.000001
   -3    2   -1    1    4   -0.007276   -0.000008
   -3    2   -1    2    4   -0.007303    0.000005
   -3    2   -1    3    4   -0.002011    0.000003
   -3    2   -1    4    4    0.001617    0.000001
   -3    2   -1    5    4   -0.016654   -0.000001
   -3    2   -1    6    4   -0.004663   -0.000002
   -3    2   -1    7    4   -0.016296    0.000001
   -3    2   -1    8    4   -0.007970   -0.000000
   -3    2   -1    1    5   -0.003987   -0.000001
   -3    2   -1    2    5   -0.007758   -0.000004
   -3    2   -1    3    5   -0.009988    0.000002
   -3    2   -1    4    5   -0.007770    0.000003
   -3    2   -1    5    5    0.001487   -0.000003
   -3    2   -1    6    5   -0.006265    0.000002
   -3    2   -1    7    5   -0.003751   -0.000000
   -3    2   -1    8    5   -0.006273   -0.000003
   -3    2   -1    1    6   -0.002524    0.000006
   -3    2   -1    2    6    0.007382    0.000002
   -3    2   -1    3    6   -0.003945   -0.000001
   -3    2   -1    4    6   -0.017729    0.000001
   -3    2   -1    5    6   -0.006244   -0.000001
   -3    2   -1    6    6    0.001485    0.000003
   -3    2   -1    7    6   -0.003726    0.000000
   -3    2   -1    8    6   -0.006244    0.000002
   -3    2   -1    1    7    0.000488   -0.000006
   -3    2   -1    2    7   -0.006284   -0.000003
   -3    2   -1    3    7   -0.016059    0.000006
   -3    2   -1    4    7   -0.006306    0.000004
   -3    2   -1    5    7   -0.006565   -0.000001
   -3    2   -1    6    7   -0.006553    0.000001
   -3    2   -1    7    7   -0.010318   -0.000000
   -3    2   -1    8    7   -0.006566   -0.000000
   -3    2   -1    1    8   -0.002509   -0.000005
   -3    2   -1    2    8   -0.017730   -0.000002
   -3    2   -1    3    8   -0.003942    0.000005
   -3    2   -1    4    8    0.007340    0.000002
   -3    2   -1    5    8   -0.006274   -0.000003
   -3    2   -1    6    8   -0.006267    0.000003
   -3    2   -1    7    8   -0.003753   -0.000000
   -3    2   -1    8    8    0.001486   -0.000001
   -3    2    0    1    1    0.001342   -0.000003
   -3    2    0    2    1   -0.001492   -0.000010
   -3    2    0    3    1    0.006279    0.000025
   -3    2    0    4    1   -0.001395    0.000006
   -3    2    0    5    1   -0.005349    0.000006
   -3    2    0    6    1   -0.004942    0.000008
   -3    2    0    7    1   -0.004857    0.000008
   -3    2    0    8    1   -0.004963    0.000011
   -3    2    0    1    2    0.003018    0.000022
   -3    2    0    2    2   -0.007473   -0.000004
   -3    2    0    3    2   -0.004366   -0.000021
   -3    2    0    4    2   -0.012409   -0.000003
   -3    2    0    5    2   -0.004969   -0.000010
   -3    2    0    6    2   -0.005306   -0.000007
   -3    2    0    7    2   -0.004862   -0.000011
   -3    2    0    8    2   -0.004970   -0.000014
   -3    2    0    1    3    0.010440   -0.000024
   -3    2    0    2    3    0.003602    0.000017
   -3    2    0    3    3   -0.012331    0.000007
   -3    2    0    4    3    0.003683   -0.000002
   -3    2    0    5    3   -0.005266   -0.000006
   -3    2    0    6    3   -0.005273    0.000008
   -3    2    0    7    3   -0.005041   -0.000000
   -3    2    0    8    3   -0.005266   -0.000002
   -3    2    0    1    4    0.003101   -0.000014
   -3    2    0    2    4   -0.012426    0.000004
   -3    2    0    3    4   -0.004292    0.000009
   -3    2    0    4    4   -0.007556    0.000001
   -3    2    0    5    4   -0.004962   -0.000001
   -3    2    0    6    4   -0.004943    0.000006
   -3    2    0    7    4   -0.004859    0.000002
   -3    2    0    8    4   -0.005353    0.000002
   -3    2    0    1    5    0.005010   -0.000008
   -3    2    0    2    5   -0.022810    0.000006
   -3    2    0    3    5    0.011855    0.000008
   -3    2    0    4    5   -0.022794   -0.000000
   -3    2    0    5    5   -0.002156   -0.000001
   -3    2    0    6    5   -0.004139    0.000008
   -3    2    0    7    5   -0.010841    0.000006
   -3    2    0    8    5   -0.004130    0.000003
   -3    2    0    1    6   -0.005069    0.000005
   -3    2    0    2    6    0.013445   -0.000004
   -3    2    0    3    6   -0.005071   -0.000002
   -3    2    0    4    6    0.003337    0.000001
   -3    2    0    5    6   -0.003245   -0.000003
   -3    2    0    6    6    0.005033    0.000002
   -3    2    0    7    6    0.002649    0.000001
   -3    2    0    8    6   -0.004443    0.000001
   -3    2    0    1    7    0.011853   -0.000008
   -3    2    0    2    7   -0.022809   -0.000007
   -3    2    0    3    7    0.005010    0.000008
   -3    2    0    4    7   -0.022794    0.000001
   -3    2    0    5    7    0.007478   -0.000005
   -3    2    0    6    7    0.000769   -0.000004
   -3    2    0    7    7   -0.012269   -0.000003
   -3    2    0    8    7    0.000771   -0.000003
   -3    2    0    1    8   -0.005050   -0.000014
   -3    2    0    2    8    0.003328   -0.000001
   -3    2    0    3    8   -0.005049    0.000012
   -3    2    0    4    8    0.013500    0.000004
   -3    2    0    5    8   -0.003272   -0.000006
   -3    2    0    6    8   -0.004443    0.000006
   -3    2    0    7    8    0.002664    0.000002
   -3    2    0    8    8    0.005095    0.000000
   -3    2    1    1    1   -0.012335   -0.000007
   -3    2    1    2    1    0.003607   -0.000023
   -3    2    1    3    1    0.010441    0.000024
   -3    2    1    4    1    0.003681    0.000008
   -3    2    1    5    1   -0.007463    0.000007
   -3    2    1    6    1    0.002977    0.000000
   -3    2    1    7    1    0.008662    0.000008
   -3    2    1    8    1    0.002985    0.000010
   -3    2    1    1    2   -0.004359    0.000025
   -3    2    1    2    2   -0.007472    0.000003
   -3    2    1    3    2    0.003012   -0.000015
   -3    2    1    4    2   -0.012411    0.000001
   -3    2    1    5    2   -0.001701   -0.000005
   -3    2    1    6    2   -0.003526    0.000001
   -3    2    1    7    2   -0.001700    0.000009
   -3    2    1    8    2    0.000631    0.000003
   -3    2    1    1    3    0.006277   -0.000025
   -3    2    1    2    3   -0.001497    0.000006
   -3    2    1    3    3    0.001346    0.000003
   -3    2    1    4    3   -0.001394   -0.000002
   -3    2    1    5    3    0.008663   -0.000008
   -3    2    1    6    3    0.002978   -0.000003
   -3    2    1    7    3   -0.007461   -0.000007
   -3    2    1    8    3    0.002986   -0.000007
   -3    2    1    1    4   -0.004297   -0.000014
   -3    2    1    2    4   -0.012425   -0.000002
   -3    2    1    3    4    0.003105    0.000007
   -3    2    1    4    4   -0.007556    0.000000
   -3    2    1    5    4   -0.001663   -0.000000
   -3    2    1    6    4    0.000689   -0.000003
   -3    2    1    7    4   -0.001662   -0.000004
   -3    2    1    8    4   -0.003529   -0.000001
   -3    2    1    1    5   -0.016059   -0.000006
   -3    2    1    2    5   -0.006285    0.000003
   -3    2    1    3    5    0.000489    0.000006
   -3    2    1    4    5   -0.006304   -0.000004
   -3    2    1    5    5   -0.012269    0.000003
   -3    2    1    6    5    0.000768    0.000002
   -3    2    1    7    5    0.007478    0.000005
   -3    2    1    8    5    0.000771    0.000005
   -3    2    1    1    6   -0.003942    0.000003
   -3    2    1    2    6    0.007382   -0.000004
   -3    2    1    3    6   -0.002525   -0.000005
   -3    2    1    4    6   -0.017729   -0.000002
   -3    2    1    5    6    0.002650    0.000001
   -3    2    1    6    6    0.005035   -0.000001
   -3    2    1    7    6   -0.003244    0.000004
   -3    2    1    8    6   -0.004443    0.000002
   -3    2    1    1    7   -0.009988   -0.000002
   -3    2    1    2    7   -0.007759    0.000002
   -3    2    1    3    7   -0.003987    0.000001
   -3    2    1    4    7   -0.007769   -0.000001
   -3    2    1    5    7   -0.010840   -0.000006
   -3    2    1    6    7   -0.004138   -0.000009
   -3    2    1    7    7   -0.002156    0.000001
   -3    2    1    8    7   -0.004131   -0.000001
   -3    2    1    1    8   -0.003944   -0.000006
   -3    2    1    2    8   -0.017729    0.000003
   -3    2    1    3    8   -0.002507    0.000005
   -3    2    1    4    8    0.007339   -0.000000
   -3    2    1    5    8    0.002663   -0.000004
   -3    2    1    6    8   -0.004442   -0.000009
   -3    2    1    7    8   -0.003273    0.000004
   -3    2    1    8    8    0.005094   -0.000001
   -3    2    2    1    1    0.005373    0.000000
   -3    2    2    2    1   -0.006684   -0.000022
   -3    2    2    3    1   -0.006633    0.000014
   -3    2    2    4    1   -0.006636    0.000008
   -3    2    2    5    1   -0.005042    0.000000
   -3    2    2    6    1   -0.005272   -0.000009
   -3    2    2    7    1   -0.005266    0.000006
   -3    2    2    8    1   -0.005268    0.000003
   -3    2    2    1    2   -0.002065    0.000020
   -3    2    2    2    2    0.001749    0.000005
   -3    2    2    3    2   -0.007337   -0.000013
   -3    2    2    4    2   -0.007330   -0.000001
   -3    2    2    5    2   -0.004859    0.000013
   -3    2    2    6    2   -0.005304    0.000009
   -3    2    2    7    2   -0.004966    0.000014
   -3    2    2    8    2   -0.004969    0.000015
   -3    2    2    1    3   -0.002013   -0.000013
   -3    2    2    2    3   -0.007312    0.000013
   -3    2    2    3    3    0.001629   -0.000003
   -3    2    2    4    3   -0.007277   -0.000004
   -3    2    2    5    3   -0.004857   -0.000008
   -3    2    2    6    3   -0.004942   -0.000010
   -3    2    2    7    3   -0.005347   -0.000006
   -3    2    2    8    3   -0.004964   -0.000009
   -3    2    2    1    4   -0.002016   -0.000007
   -3    2    2    2    4   -0.007302    0.000001
   -3    2    2    3    4   -0.007274    0.000004
   -3    2    2    4    4    0.001617   -0.000002
   -3    2    2    5    4   -0.004861   -0.000004
   -3    2    2    6    4   -0.004944   -0.000008
   -3    2    2    7    4   -0.004963   -0.000002
   -3    2    2    8    4   -0.005356   -0.000003
   -3    2    2    1    5   -0.008974    0.000000
   -3    2    2    2    5   -0.008061   -0.000004
   -3    2    2    3    5   -0.008081    0.000003
   -3    2    2    4    5   -0.008084    0.000001
   -3    2    2    5    5   -0.010319    0.000000
   -3    2    2    6    5   -0.006553   -0.000002
   -3    2    2    7    5   -0.006565    0.000001
   -3    2    2    8    5   -0.006566    0.000001
   -3    2    2    1    6   -0.009191    0.000003
   -3    2    2    2    6    0.002920   -0.000000
   -3    2    2    3    6   -0.008571   -0.000004
   -3    2    2    4    6   -0.008573   -0.000001
   -3    2    2    5    6   -0.003726   -0.000000
   -3    2    2    6    6    0.001487   -0.000004
   -3    2    2    7    6   -0.006243    0.000000
   -3    2    2    8    6   -0.006245   -0.000001
   -3    2    2    1    7   -0.009204   -0.000002
   -3    2    2    2    7   -0.008552    0.000003
   -3    2    2    3    7    0.002862    0.000000
   -3    2    2    4    7   -0.008580   -0.000000
   -3    2    2    5    7   -0.003751    0.000000
   -3    2    2    6    7   -0.006264   -0.000003
   -3    2    2    7    7    0.001487    0.000003
   -3    2    2    8    7   -0.006272    0.000003
   -3    2    2    1    8   -0.009205   -0.000001
   -3    2    2    2    8   -0.008552    0.000000
   -3    2    2    3    8   -0.008578    0.000001
   -3    2    2    4    8    0.002856    0.000000
   -3    2    2    5    8   -0.003754    0.000000
   -3    2    2    6    8   -0.006267   -0.000003
   -3    2    2    7    8   -0.006273    0.000003
   -3    2    2    8    8    0.001485    0.000001
   -2   -2    1    1    1    0.001625   -0.000003
   -2   -2    1    2    1   -0.007333   -0.000017
   -2   -2    1    3    1   -0.006632    0.000014
   -2   -2    1    4    1   -0.007276    0.000008
   -2   -2    1    5    1   -0.003987    0.000001
   -2   -2    1    6    1   -0.002524   -0.000006
   -2   -2    1    7    1    0.000488    0.000006
   -2   -2    1    8    1   -0.002509    0.000005
   -2   -2    1    1    2   -0.007308    0.000017
   -2   -2    1    2    2    0.001749    0.000004
   -2   -2    1    3    2   -0.006690   -0.000018
   -2   -2    1    4    2   -0.007303   -0.000005
   -2   -2    1    5    2   -0.007758    0.000004
   -2   -2    1    6    2    0.007382   -0.000002
   -2   -2    1    7    2   -0.006284    0.000003
   -2   -2    1    8    2   -0.017730    0.000002
   -2   -2    1    1    3   -0.002012   -0.000013
   -2   -2    1    2    3   -0.002071    0.000016
   -2   -2    1    3    3    0.005377    0.000000
   -2   -2    1    4    3   -0.002011   -0.000003
   -2   -2    1    5    3   -0.009988   -0.000002
   -2   -2    1    6    3   -0.003945    0.000001
   -2   -2    1    7    3   -0.016059   -0.000006
   -2   -2    1    8    3   -0.003942   -0.000005
   -2   -2    1    1    4   -0.007278   -0.000007
   -2   -2    1    2    4   -0.007330    0.000005
   -2   -2    1    3    4   -0.006632    0.000004
   -2   -2    1    4    4    0.001617   -0.000001
   -2   -2    1    5    4   -0.007770   -0.000003
   -2   -2    1    6    4   -0.017729   -0.000001
   -2   -2    1    7    4   -0.006306   -0.000004
   -2   -2    1    8    4    0.007340   -0.000002
   -2   -2    1    1    5    0.001746   -0.000002
   -2   -2    1    2    5   -0.016650    0.000003
   -2   -2    1    3    5   -0.000104    0.000002
   -2   -2    1    4    5   -0.016654    0.000001
   -2   -2    1    5    5    0.001487    0.000003
   -2   -2    1    6    5   -0.006244    0.000001
   -2   -2    1    7    5   -0.006565    0.000001
   -2   -2    1    8    5   -0.006274    0.000003
   -2   -2    1    1    6   -0.006521    0.000003
   -2   -2    1    2    6   -0.007914    0.000002
   -2   -2    1    3    6   -0.000372   -0.000004
   -2   -2    1    4    6   -0.004663    0.000002
   -2   -2    1    5    6   -0.006265   -0.000002
   -2   -2    1    6    6    0.001485   -0.000003
   -2   -2    1    7    6   -0.006553   -0.000001
   -2   -2    1    8    6   -0.006267   -0.000003
   -2   -2    1    1    7   -0.007727   -0.000004
   -2   -2    1    2    7   -0.016293    0.000008
   -2   -2    1    3    7    0.006477   -0.000000
   -2   -2    1    4    7   -0.016296   -0.000001
   -2   -2    1    5    7   -0.003751    0.000000
   -2   -2    1    6    7   -0.003726   -0.000000
   -2   -2    1    7    7   -0.010318    0.000000
   -2   -2    1    8    7   -0.003753    0.000000
   -2   -2    1    1    8   -0.006541   -0.000003
   -2   -2    1    2    8   -0.004639    0.000004
   -2   -2    1    3    8   -0.000374   -0.000001
   -2   -2    1    4    8   -0.007970    0.000000
   -2   -2    1    5    8   -0.006273    0.000003
   -2   -2    1    6    8   -0.006244   -0.000002
   -2   -2    1    7    8   -0.006566    0.000000
   -2   -2    1    8    8    0.001486    0.000001
   -2   -2    2    1    1    0.002520   -0.000001
   -2   -2    2    2    1   -0.013047   -0.000017
   -2   -2    2    3    1   -0.003815    0.000011
   -2   -2    2    4    1   -0.012991    0.000006
   -2   -2    2    5    1    0.002860    0.000000
   -2   -2    2    6    1   -0.008571   -0.000004
   -2   -2    2    7    1   -0.008081    0.000003
   -2   -2    2    8    1   -0.008580    0.000002
   -2   -2    2    1    2   -0.004072    0.000018
   -2   -2    2    2    2    0.002640   -0.000000
   -2   -2    2    3    2   -0.004076   -0.000015
   -2   -2    2    4    2   -0.003833   -0.000003
   -2   -2    2    5    2   -0.008552    0.000004
   -2   -2    2    6    2    0.002920   -0.000000
   -2   -2    2    7    2   -0.008062   -0.000003
   -2   -2    2    8    2   -0.008552   -0.000001
   -2   -2    2    1    3   -0.003816   -0.000011
   -2   -2    2    2    3   -0.013051    0.000014
   -2   -2    2    3    3    0.002523    0.000001
   -2   -2    2    4    3   -0.012989   -0.000003
   -2   -2    2    5    3   -0.009203   -0.000002
   -2   -2    2    6    3   -0.009190    0.000002
   -2   -2    2    7    3   -0.008972    0.000000
   -2   -2    2    8    3   -0.009204   -0.000000
   -2   -2    2    1    4   -0.004041   -0.000006
   -2   -2    2    2    4   -0.003862    0.000003
   -2   -2    2    3    4   -0.004039    0.000003
   -2   -2    2    4    4    0.002512    0.000000
   -2   -2    2    5    4   -0.008581   -0.000001
   -2   -2    2    6    4   -0.008572    0.000001
   -2   -2    2    7    4   -0.008083    0.000001
   -2   -2    2    8    4    0.002856    0.000000
   -2   -2    2    1    5    0.006477    0.000000
   -2   -2    2    2    5   -0.016292   -0.000008
   -2   -2    2    3    5   -0.007726    0.000004
   -2   -2    2    4    5   -0.016297    0.000001
   -2   -2    2    5    5   -0.001834    0.000002
   -2   -2    2    6    5   -0.015131    0.000001
   -2   -2    2    7    5   -0.008967   -0.000001
   -2   -2    2    8    5   -0.015156    0.000000
   -2   -2    2    1    6   -0.000371    0.000005
   -2   -2    2    2    6   -0.007913   -0.000003
   -2   -2    2    3    6   -0.006522   -0.000001
   -2   -2    2    4    6   -0.004665   -0.000001
   -2   -2    2    5    6   -0.009188   -0.000000
   -2   -2    2    6    6   -0.001827    0.000001
   -2   -2    2    7    6   -0.009188    0.000001
   -2   -2    2    8    6   -0.008960    0.000000
   -2   -2    2    1    7   -0.000105   -0.000002
   -2   -2    2    2    7   -0.016649   -0.000003
   -2   -2    2    3    7    0.001747    0.000002
   -2   -2    2    4    7   -0.016654   -0.000000
   -2   -2    2    5    7   -0.008966    0.000001
   -2   -2    2    6    7   -0.015131   -0.000001
   -2   -2    2    7    7   -0.001834   -0.000002
   -2   -2    2    8    7   -0.015155   -0.000001
   -2   -2    2    1    8   -0.000376   -0.000001
   -2   -2    2    2    8   -0.004638   -0.000004
   -2   -2    2    3    8   -0.006540    0.000002
   -2   -2    2    4    8   -0.007971    0.000000
   -2   -2    2    5    8   -0.009196    0.000001
   -2   -2    2    6    8   -0.008944   -0.000000
   -2   -2    2    7    8   -0.009196   -0.000002
   -2   -2    2    8    8   -0.001829   -0.000001
   -2   -2    3    1    1    0.005373   -0.000000
   -2   -2    3    2    1   -0.002065   -0.000020
   -2   -2    3    3    1   -0.002013    0.000013
   -2   -2    3    4    1   -0.002016    0.000007
   -2   -2    3    5    1   -0.008974   -0.000000
   -2   -2    3    6    1   -0.009191   -0.000003
   -2   -2    3    7    1   -0.009204    0.000002
   -2   -2    3    8    1   -0.009205    0.000001
   -2   -2    3    1    2   -0.006684    0.000022
   -2   -2    3    2    2    0.001749   -0.000005
   -2   -2    3    3    2   -0.007312   -0.000013
   -2   -2    3    4    2   -0.007302   -0.000001
   -2   -2    3    5    2   -0.008061    0.000004
   -2   -2    3    6    2    0.002920    0.000000
   -2   -2    3    7    2   -0.008552   -0.000003
   -2   -2    3    8    2   -0.008552   -0.000000
   -2   -2    3    1    3   -0.006633   -0.000014
   -2   -2    3    2    3   -0.007337    0.000013
   -2   -2    3    3    3    0.001629    0.000003
   -2   -2    3    4    3   -0.007274   -0.000004
   -2   -2    3    5    3   -0.008081   -0.000003
   -2   -2    3    6    3   -0.008571    0.000004
   -2   -2    3    7    3    0.002862   -0.000000
   -2   -2    3    8    3   -0.008578   -0.000001
   -2   -2    3    1    4   -0.006636   -0.000008
   -2   -2    3    2    4   -0.007330    0.000001
   -2   -2    3    3    4   -0.007277    0.000004
   -2   -2    3    4    4    0.001617    0.000002
   -2   -2    3    5    4   -0.008084   -0.000001
   -2   -2    3    6    4   -0.008573    0.000001
   -2   -2    3    7    4   -0.008580    0.000000
   -2   -2    3    8    4    0.002856   -0.000000
   -2   -2    3    1    5   -0.005042   -0.000000
   -2   -2    3    2    5   -0.004859   -0.000013
   -2   -2    3    3    5   -0.004857    0.000008
   -2   -2    3    4    5   -0.004861    0.000004
   -2   -2    3    5    5   -0.010319   -0.000000
   -2   -2    3    6    5   -0.003726    0.000000
   -2   -2    3    7    5   -0.003751   -0.000000
   -2   -2    3    8    5   -0.003754   -0.000000
   -2   -2    3    1    6   -0.005272    0.000009
   -2   -2    3    2    6   -0.005304   -0.000009
   -2   -2    3    3    6   -0.004942    0.000010
   -2   -2    3    4    6   -0.004944    0.000008
   -2   -2    3    5    6   -0.006553    0.000002
   -2   -2    3    6    6    0.001487    0.000004
   -2   -2    3    7    6   -0.006264    0.000003
   -2   -2    3    8    6   -0.006267    0.000003
   -2   -2    3    1    7   -0.005266   -0.000006
   -2   -2    3    2    7   -0.004966   -0.000014
   -2   -2    3    3    7   -0.005347    0.000006
   -2   -2    3    4    7   -0.004963    0.000002
   -2   -2    3    5    7   -0.006565   -0.000001
   -2   -2    3    6    7   -0.006243   -0.000000
   -2   -2    3    7    7    0.001487   -0.000003
   -2   -2    3    8    7   -0.006273   -0.000003
   -2   -2    3    1    8   -0.005268   -0.000003
   -2   -2    3    2    8   -0.004969   -0.000015
   -2   -2    3    3    8   -0.004964    0.000009
   -2   -2    3    4    8   -0.005356    0.000003
   -2   -2    3    5    8   -0.006566   -0.000001
   -2   -2    3    6    8   -0.006245    0.000001
   -2   -2    3    7    8   -0.006272   -0.000003
   -2   -2    3    8    8    0.001485   -0.000001
   -2   -1    0    1    1   -0.007570   -0.000005
   -2   -1    0    2    1   -0.001493   -0.000012
   -2   -1    0    3    1    0.003668    0.000012
   -2   -1    0    4    1   -0.012404    0.000004
   -2   -1    0    5    1    0.000188   -0.000003
   -2   -1    0    6    1    0.008242   -0.000007
   -2   -1    0    7    1    0.006977    0.000003
   -2   -1    0    8    1    0.002693    0.000005
   -2   -1    0    1    2    0.003071    0.000022
   -2   -1    0    2    2    0.001472   -0.000004
   -2   -1    0    3    2    0.010363   -0.000030
   -2   -1    0    4    2    0.003078   -0.000012
   -2   -1    0    5    2    0.008269    0.000006
   -2   -1    0    6    2    0.000163    0.000001
   -2   -1    0    7    2    0.006968   -0.000006
   -2   -1    0    8    2    0.002651   -0.000006
   -2   -1    0    1    3   -0.004302   -0.000015
   -2   -1    0    2    3    0.006160    0.000033
   -2   -1    0    3    3   -0.012332    0.000009
   -2   -1    0    4    3   -0.004301    0.000000
   -2   -1    0    5    3   -0.006943   -0.000001
   -2   -1    0    6    3   -0.006931    0.000005
   -2   -1    0    7    3    0.000484    0.000002
   -2   -1    0    8    3    0.001093   -0.000000
   -2   -1    0    1    4   -0.012404   -0.000003
   -2   -1    0    2    4   -0.001485    0.000006
   -2   -1    0    3    4    0.003671    0.000007
   -2   -1    0    4    4   -0.007576    0.000001
   -2   -1    0    5    4   -0.015396   -0.000003
   -2   -1    0    6    4   -0.015386    0.000003
   -2   -1    0    7    4   -0.013642   -0.000001
   -2   -1    0    8    4    0.043400    0.000003
   -2   -1    0    1    5    0.021446   -0.000001
   -2   -1    0    2    5   -0.018547    0.000009
   -2   -1    0    3    5    0.007581    0.000001
   -2   -1    0    4    5   -0.014635   -0.000007
   -2   -1    0    5    5    0.005080    0.000002
   -2   -1    0    6    5   -0.004124    0.000007
   -2   -1    0    7    5    0.000757   -0.000006
   -2   -1    0    8    5   -0.004434    0.000004
   -2   -1    0    1    6   -0.010576    0.000001
   -2   -1    0    2    6   -0.012984    0.000002
   -2   -1    0    3    6    0.010909   -0.000005
   -2   -1    0    4    6    0.005816    0.000010
   -2   -1    0    5    6   -0.003271   -0.000003
   -2   -1    0    6    6   -0.002136   -0.000001
   -2   -1    0    7    6    0.007500   -0.000006
   -2   -1    0    8    6   -0.003273   -0.000007
   -2   -1    0    1    7    0.011101    0.000001
   -2   -1    0    2    7   -0.011445    0.000007
   -2   -1    0    3    7   -0.001853   -0.000004
   -2   -1    0    4    7   -0.016490   -0.000010
   -2   -1    0    5    7    0.002658    0.000004
   -2   -1    0    6    7   -0.010823    0.000008
   -2   -1    0    7    7   -0.012270   -0.000004
   -2   -1    0    8    7    0.002659    0.000002
   -2   -1    0    1    8   -0.002628   -0.000002
   -2   -1    0    2    8    0.007973    0.000018
   -2   -1    0    3    8    0.002325   -0.000001
   -2   -1    0    4    8   -0.003336   -0.000001
   -2   -1    0    5    8   -0.004434    0.000004
   -2   -1    0    6    8   -0.004124    0.000006
   -2   -1    0    7    8    0.000757   -0.000003
   -2   -1    0    8    8    0.005083    0.000001
   -2   -1    1    1    1   -0.002234   -0.000003
   -2   -1    1    2    1   -0.017779   -0.000023
   -2   -1    1    3    1   -0.009203    0.000012
   -2   -1    1    4    1   -0.048788    0.000015
   -2   -1    1    5    1    0.007331    0.000001
   -2   -1    1    6    1   -0.007776   -0.000005
   -2   -1    1    7    1   -0.006300   -0.000002
   -2   -1    1    8    1   -0.017722   -0.000001
   -2   -1    1    1    2    0.007577    0.000023
   -2   -1    1    2    2   -0.005911    0.000002
   -2   -1    1    3    2    0.000310   -0.000020
   -2   -1    1    4    2   -0.009264   -0.000005
   -2   -1    1    5    2   -0.002503    0.000005
   -2   -1    1    6    2   -0.003974   -0.000001
   -2   -1    1    7    2    0.000492   -0.000007
   -2   -1    1    8    2   -0.002501   -0.000004
   -2   -1    1    1    3   -0.001254   -0.000012
   -2   -1    1    2    3   -0.008226    0.000027
   -2   -1    1    3    3   -0.006054    0.000000
   -2   -1    1    4    3   -0.017729   -0.000005
   -2   -1    1    5    3   -0.003956    0.000001
   -2   -1    1    6    3   -0.009983    0.000003
   -2   -1    1    7    3   -0.016058    0.000007
   -2   -1    1    8    3   -0.003957    0.000004
   -2   -1    1    1    4   -0.022394   -0.000009
   -2   -1    1    2    4   -0.001274    0.000010
   -2   -1    1    3    4    0.007606    0.000003
   -2   -1    1    4    4   -0.002226   -0.000003
   -2   -1    1    5    4   -0.017722   -0.000000
   -2   -1    1    6    4   -0.007777    0.000004
   -2   -1    1    7    4   -0.006301    0.000003
   -2   -1    1    8    4    0.007328    0.000004
   -2   -1    1    1    5    0.012600   -0.000001
   -2   -1    1    2    5   -0.018061   -0.000004
   -2   -1    1    3    5    0.011058    0.000004
   -2   -1    1    4    5   -0.048871    0.000006
   -2   -1    1    5    5    0.015392    0.000004
   -2   -1    1    6    5   -0.019888    0.000004
   -2   -1    1    7    5   -0.006782   -0.000003
   -2   -1    1    8    5   -0.029019    0.000004
   -2   -1    1    1    6    0.022763    0.000007
   -2   -1    1    2    6   -0.018411   -0.000002
   -2   -1    1    3    6    0.022762   -0.000002
   -2   -1    1    4    6   -0.020810    0.000002
   -2   -1    1    5    6    0.009157   -0.000002
   -2   -1    1    6    6   -0.014597   -0.000002
   -2   -1    1    7    6   -0.007681   -0.000001
   -2   -1    1    8    6   -0.006779   -0.000002
   -2   -1    1    1    7    0.011058   -0.000004
   -2   -1    1    2    7   -0.018062    0.000001
   -2   -1    1    3    7    0.012599    0.000002
   -2   -1    1    4    7   -0.048870   -0.000005
   -2   -1    1    5    7   -0.000049    0.000001
   -2   -1    1    6    7   -0.020747    0.000002
   -2   -1    1    7    7   -0.014619   -0.000006
   -2   -1    1    8    7   -0.019913    0.000001
   -2   -1    1    1    8    0.004452    0.000009
   -2   -1    1    2    8    0.002337    0.000000
   -2   -1    1    3    8    0.004451   -0.000010
   -2   -1    1    4    8   -0.011979   -0.000001
   -2   -1    1    5    8   -0.009124    0.000008
   -2   -1    1    6    8   -0.000032   -0.000002
   -2   -1    1    7    8    0.009153   -0.000005
   -2   -1    1    8    8    0.015405   -0.000002
   -2   -1    2    1    1   -0.006057   -0.000001
   -2   -1    2    2    1   -0.008217   -0.000034
   -2   -1    2    3    1   -0.001253    0.000011
   -2   -1    2    4    1   -0.017732    0.000008
   -2   -1    2    5    1   -0.007959   -0.000003
   -2   -1    2    6    1   -0.016302   -0.000006
   -2   -1    2    7    1   -0.004644   -0.000003
   -2   -1    2    8    1   -0.016652   -0.000004
   -2   -1    2    1    2    0.000318    0.000025
   -2   -1    2    2    2   -0.005909   -0.000002
   -2   -1    2    3    2    0.007571   -0.000018
   -2   -1    2    4    2   -0.009265   -0.000003
   -2   -1    2    5    2   -0.000360    0.000006
   -2   -1    2    6    2    0.006492    0.000000
   -2   -1    2    7    2   -0.000361   -0.000005
   -2   -1    2    8    2   -0.000089   -0.000001
   -2   -1    2    1    3   -0.009204   -0.000013
   -2   -1    2    2    3   -0.017786    0.000020
   -2   -1    2    3    3   -0.002231    0.000001
   -2   -1    2    4    3   -0.048786   -0.000013
   -2   -1    2    5    3   -0.004645    0.000002
   -2   -1    2    6    3   -0.016303    0.000004
   -2   -1    2    7    3   -0.007958    0.000002
   -2   -1    2    8    3   -0.016652    0.000003
   -2   -1    2    1    4    0.007602   -0.000007
   -2   -1    2    2    4   -0.001272   -0.000002
   -2   -1    2    3    4   -0.022392    0.000007
   -2   -1    2    4    4   -0.002226    0.000001
   -2   -1    2    5    4   -0.006522    0.000001
   -2   -1    2    6    4   -0.007729    0.000001
   -2   -1    2    7    4   -0.006521   -0.000000
   -2   -1    2    8    4    0.001757    0.000001
   -2   -1    2    1    5   -0.001852    0.000005
   -2   -1    2    2    5   -0.011442   -0.000009
   -2   -1    2    3    5    0.011100   -0.000000
   -2   -1    2    4    5   -0.016492    0.000007
   -2   -1    2    5    5   -0.014619    0.000006
   -2   -1    2    6    5   -0.020746   -0.000003
   -2   -1    2    7    5   -0.000050   -0.000001
   -2   -1    2    8    5   -0.019914   -0.000002
   -2   -1    2    1    6    0.010911    0.000007
   -2   -1    2    2    6   -0.012982   -0.000005
   -2   -1    2    3    6   -0.010576    0.000002
   -2   -1    2    4    6    0.005812   -0.000006
   -2   -1    2    5    6   -0.007681    0.000001
   -2   -1    2    6    6   -0.014596    0.000004
   -2   -1    2    7    6    0.009159    0.000004
   -2   -1    2    8    6   -0.006778    0.000002
   -2   -1    2    1    7    0.007581    0.000000
   -2   -1    2    2    7   -0.018545   -0.000012
   -2   -1    2    3    7    0.021445    0.000003
   -2   -1    2    4    7   -0.014636    0.000004
   -2   -1    2    5    7   -0.006781    0.000003
   -2   -1    2    6    7   -0.019888   -0.000004
   -2   -1    2    7    7    0.015391   -0.000005
   -2   -1    2    8    7   -0.029019   -0.000005
   -2   -1    2    1    8    0.002324    0.000001
   -2   -1    2    2    8    0.007976   -0.000016
   -2   -1    2    3    8   -0.002630   -0.000000
   -2   -1    2    4    8   -0.003339   -0.000000
   -2   -1    2    5    8    0.009155    0.000005
   -2   -1    2    6    8   -0.000032    0.000001
   -2   -1    2    7    8   -0.009126   -0.000008
   -2   -1    2    8    8    0.015404   -0.000001
   -2   -1    3    1    1   -0.012335   -0.000011
   -2   -1    3    2    1    0.006168   -0.000039
   -2   -1    3    3    1   -0.004302    0.000014
   -2   -1    3    4    1   -0.004305    0.000004
   -2   -1    3    5    1   -0.016057   -0.000009
   -2   -1    3    6    1   -0.009982   -0.000003
   -2   -1    3    7    1   -0.003954   -0.000002
   -2   -1    3    8    1   -0.003957   -0.000004
   -2   -1    3    1    2    0.010372    0.000036
   -2   -1    3    2    2    0.001474    0.000004
   -2   -1    3    3    2    0.003064   -0.000016
   -2   -1    3    4    2    0.003079    0.000003
   -2   -1    3    5    2    0.000494    0.000008
   -2   -1    3    6    2   -0.003973    0.000001
   -2   -1    3    7    2   -0.002504   -0.000003
   -2   -1    3    8    2   -0.002500    0.000002
   -2   -1    3    1    3    0.003666   -0.000014
   -2   -1    3    2    3   -0.001499    0.000008
   -2   -1    3    3    3   -0.007568    0.000004
   -2   -1    3    4    3   -0.012401   -0.000002
   -2   -1    3    5    3   -0.006301    0.000001
   -2   -1    3    6    3   -0.007777    0.000003
   -2   -1    3    7    3    0.007331   -0.000002
   -2   -1    3    8    3   -0.017721    0.000001
   -2   -1    3    1    4    0.003667   -0.000010
   -2   -1    3    2    4   -0.001485   -0.000002
   -2   -1    3    3    4   -0.012402    0.000001
   -2   -1    3    4    4   -0.007576    0.000001
   -2   -1    3    5    4   -0.006301   -0.000002
   -2   -1    3    6    4   -0.007777   -0.000002
   -2   -1    3    7    4   -0.017721    0.000001
   -2   -1    3    8    4    0.007327   -0.000004
   -2   -1    3    1    5   -0.007494    0.000010
   -2   -1    3    2    5    0.008696   -0.000012
   -2   -1    3    3    5   -0.001692   -0.000008
   -2   -1    3    4    5   -0.001688   -0.000000
   -2   -1    3    5    5   -0.012269    0.000005
   -2   -1    3    6    5   -0.010821   -0.000009
   -2   -1    3    7    5    0.002658   -0.000004
   -2   -1    3    8    5    0.002657   -0.000003
   -2   -1    3    1    6    0.008658    0.000012
   -2   -1    3    2    6   -0.007419   -0.000010
   -2   -1    3    3    6   -0.001665    0.000004
   -2   -1    3    4    6   -0.001662    0.000005
   -2   -1    3    5    6    0.007502    0.000007
   -2   -1    3    6    6   -0.002133    0.000001
   -2   -1    3    7    6   -0.003269    0.000005
   -2   -1    3    8    6   -0.003273    0.000007
   -2   -1    3    1    7    0.002951    0.000008
   -2   -1    3    2    7    0.002983   -0.000005
   -2   -1    3    3    7   -0.003544   -0.000001
   -2   -1    3    4    7    0.000665    0.000003
   -2   -1    3    5    7    0.000757    0.000006
   -2   -1    3    6    7   -0.004123   -0.000009
   -2   -1    3    7    7    0.005078   -0.000002
   -2   -1    3    8    7   -0.004435   -0.000005
   -2   -1    3    1    8    0.002950    0.000007
   -2   -1    3    2    8    0.002985   -0.000011
   -2   -1    3    3    8    0.000660   -0.000003
   -2   -1    3    4    8   -0.003544    0.000001
   -2   -1    3    5    8    0.000758    0.000004
   -2   -1    3    6    8   -0.004123   -0.000008
   -2   -1    3    7    8   -0.004435   -0.000005
   -2   -1    3    8    8    0.005081   -0.000001
   -2    0   -1    1    1   -0.007587    0.000002
   -2    0   -1    2    1    0.003620   -0.000025
   -2    0   -1    3    1   -0.001429    0.000002
   -2    0   -1    4    1   -0.012401   -0.000001
   -2    0   -1    5    1    0.000193   -0.000003
   -2    0   -1    6    1    0.006949   -0.000010
   -2    0   -1    7    1    0.008294   -0.000000
   -2    0   -1    8    1    0.002688   -0.000003
   -2    0   -1    1    2   -0.004335    0.000024
   -2    0   -1    2    2   -0.012187   -0.000009
   -2    0   -1    3    2    0.006214   -0.000032
   -2    0   -1    4    2   -0.004328   -0.000009
   -2    0   -1    5    2   -0.006960    0.000005
   -2    0   -1    6    2    0.000459    0.000002
   -2    0   -1    7    2   -0.006962   -0.000002
   -2    0   -1    8    2    0.001065   -0.000001
   -2    0   -1    1    3    0.003118   -0.000009
   -2    0   -1    2    3    0.010348    0.000030
   -2    0   -1    3    3    0.001333    0.000003
   -2    0   -1    4    3    0.003121   -0.000002
   -2    0   -1    5    3    0.008293   -0.000001
   -2    0   -1    6    3    0.006947    0.000008
   -2    0   -1    7    3    0.000191    0.000001
   -2    0   -1    8    3    0.002686    0.000003
   -2    0   -1    1    4   -0.012399   -0.000000
   -2    0   -1    2    4    0.003626    0.000005
   -2    0   -1    3    4   -0.001424    0.000003
   -2    0   -1    4    4   -0.007592    0.000002
   -2    0   -1    5    4   -0.015404    0.000002
   -2    0   -1    6    4   -0.013652   -0.000001
   -2    0   -1    7    4   -0.015403   -0.000002
   -2    0   -1    8    4    0.043424    0.000002
   -2    0   -1    1    5    0.021453    0.000009
   -2    0   -1    2    5    0.007596   -0.000005
   -2    0   -1    3    5   -0.018532   -0.000015
   -2    0   -1    4    5   -0.014639   -0.000010
   -2    0   -1    5    5    0.005070   -0.000001
   -2    0   -1    6    5    0.000764    0.000002
   -2    0   -1    7    5   -0.004137   -0.000011
   -2    0   -1    8    5   -0.004445   -0.000010
   -2    0   -1    1    6    0.011115    0.000007
   -2    0   -1    2    6   -0.001821    0.000006
   -2    0   -1    3    6   -0.011446   -0.000009
   -2    0   -1    4    6   -0.016499   -0.000005
   -2    0   -1    5    6    0.002664    0.000001
   -2    0   -1    6    6   -0.012259    0.000004
   -2    0   -1    7    6   -0.010836   -0.000008
   -2    0   -1    8    6    0.002665   -0.000006
   -2    0   -1    1    7   -0.010551    0.000005
   -2    0   -1    2    7    0.010944    0.000003
   -2    0   -1    3    7   -0.012996   -0.000006
   -2    0   -1    4    7    0.005846   -0.000012
   -2    0   -1    5    7   -0.003278    0.000006
   -2    0   -1    6    7    0.007491    0.000006
   -2    0   -1    7    7   -0.002156    0.000001
   -2    0   -1    8    7   -0.003279    0.000004
   -2    0   -1    1    8   -0.002632    0.000004
   -2    0   -1    2    8    0.002329    0.000007
   -2    0   -1    3    8    0.007963   -0.000009
   -2    0   -1    4    8   -0.003330   -0.000002
   -2    0   -1    5    8   -0.004445    0.000002
   -2    0   -1    6    8    0.000764    0.000007
   -2    0   -1    7    8   -0.004136   -0.000003
   -2    0   -1    8    8    0.005074   -0.000001
   -2    0    0    1    1    0.003253   -0.000014
   -2    0    0    2    1    0.006858   -0.000018
   -2    0    0    3    1    0.006966    0.000012
   -2    0    0    4    1   -0.253061   -0.000001
   -2    0    0    5    1    0.013461   -0.000008
   -2    0    0    6    1   -0.022826    0.000006
   -2    0    0    7    1   -0.022823   -0.000007
   -2    0    0    8    1    0.003335   -0.000002
   -2    0    0    1    2   -0.013639    0.000029
   -2    0    0    2    2    0.008327   -0.000008
   -2    0    0    3    2    0.008178   -0.000039
   -2    0    0    4    2    0.006862    0.000005
   -2    0    0    5    2   -0.005082    0.000003
   -2    0    0    6    2    0.005011   -0.000010
   -2    0    0    7    2    0.011876   -0.000010
   -2    0    0    8    2   -0.005079   -0.000015
   -2    0    0    1    3   -0.013563   -0.000015
   -2    0    0    2    3    0.008178    0.000036
   -2    0    0    3    3    0.008168    0.000006
   -2    0    0    4    3    0.006968   -0.000011
   -2    0    0    5    3   -0.005056    0.000003
   -2    0    0    6    3    0.011836    0.000010
   -2    0    0    7    3    0.005010    0.000010
   -2    0    0    8    3   -0.005056    0.000009
   -2    0    0    1    4    0.026896   -0.000000
   -2    0    0    2    4   -0.013630    0.000013
   -2    0    0    3    4   -0.013559    0.000001
   -2    0    0    4    4    0.003249   -0.000014
   -2    0    0    5    4    0.003335    0.000002
   -2    0    0    6    4   -0.022826    0.000002
   -2    0    0    7    4   -0.022822   -0.000001
   -2    0    0    8    4    0.013464    0.000008
   -2    0    0    1    5    0.089819   -0.000002
   -2    0    0    2    5   -0.019555   -0.000008
   -2    0    0    3    5   -0.019487    0.000001
   -2    0    0    4    5   -0.131877   -0.000006
   -2    0    0    5    5    0.059406   -0.000004
   -2    0    0    6    5   -0.040884    0.000006
   -2    0    0    7    5   -0.040894   -0.000014
   -2    0    0    8    5   -0.045684   -0.000006
   -2    0    0    1    6    0.147876    0.000015
   -2    0    0    2    6   -0.007677    0.000003
   -2    0    0    3    6    0.014331   -0.000010
   -2    0    0    4    6    0.017750    0.000014
   -2    0    0    5    6    0.053848    0.000003
   -2    0    0    6    6   -0.055154   -0.000002
   -2    0    0    7    6   -0.041904   -0.000008
   -2    0    0    8    6   -0.040887   -0.000007
   -2    0    0    1    7    0.147862    0.000003
   -2    0    0    2    7    0.014365    0.000002
   -2    0    0    3    7   -0.007713   -0.000007
   -2    0    0    4    7    0.017743   -0.000017
   -2    0    0    5    7    0.053836    0.000003
   -2    0    0    6    7   -0.041904    0.000003
   -2    0    0    7    7   -0.055145   -0.000006
   -2    0    0    8    7   -0.040896   -0.000001
   -2    0    0    1    8   -0.055133    0.000009
   -2    0    0    2    8    0.073002    0.000007
   -2    0    0    3    8    0.072988   -0.000009
   -2    0    0    4    8    0.053465   -0.000001
   -2    0    0    5    8   -0.054583    0.000009
   -2    0    0    6    8    0.053852    0.000010
   -2    0    0    7    8    0.053840   -0.000004
   -2    0    0    8    8    0.059410   -0.000003
   -2    0    1    1    1   -0.013640    0.000007
   -2    0    1    2    1    0.033547   -0.000040
   -2    0    1    3    1   -0.005794    0.000003
   -2    0    1    4    1    0.018672    0.000024
   -2    0    1    5    1   -0.003331    0.000001
   -2    0    1    6    1   -0.016503   -0.000011
   -2    0    1    7    1    0.005845   -0.000011
   -2    0    1    8    1   -0.014643   -0.000012
   -2    0    1    1    2    0.000886    0.000036
   -2    0    1    2    2    0.007067   -0.000003
   -2    0    1    3    2    0.000876   -0.000025
   -2    0    1    4    2    0.005197   -0.000004
   -2    0    1    5    2    0.002326    0.000005
   -2    0    1    6    2   -0.001821   -0.000002
   -2    0    1    7    2    0.010945   -0.000011
   -2    0    1    8    2    0.007598   -0.000009
   -2    0    1    1    3   -0.005795   -0.000004
   -2    0    1    2    3    0.033536    0.000026
   -2    0    1    3    3   -0.013640   -0.000006
   -2    0    1    4    3    0.018675   -0.000021
   -2    0    1    5    3    0.007961    0.000010
   -2    0    1    6    3   -0.011445    0.000006
   -2    0    1    7    3   -0.012996    0.000007
   -2    0    1    8    3   -0.018532    0.000007
   -2    0    1    1    4   -0.005500   -0.000000
   -2    0    1    2    4    0.015425    0.000005
   -2    0    1    3    4   -0.005501   -0.000002
   -2    0    1    4    4    0.042185   -0.000005
   -2    0    1    5    4   -0.002631    0.000008
   -2    0    1    6    4    0.011117    0.000006
   -2    0    1    7    4   -0.010551   -0.000001
   -2    0    1    8    4    0.021455    0.000003
   -2    0    1    1    5   -0.007709    0.000011
   -2    0    1    2    5    0.014368   -0.000011
   -2    0    1    3    5    0.147860   -0.000002
   -2    0    1    4    5    0.017740    0.000014
   -2    0    1    5    5    0.004911    0.000007
   -2    0    1    6    5    0.010022   -0.000005
   -2    0    1    7    5    0.006760   -0.000006
   -2    0    1    8    5    0.000457   -0.000004
   -2    0    1    1    6    0.014335    0.000016
   -2    0    1    2    6   -0.007676   -0.000008
   -2    0    1    3    6    0.147872   -0.000007
   -2    0    1    4    6    0.017746   -0.000013
   -2    0    1    5    6    0.020679    0.000002
   -2    0    1    6    6   -0.006508    0.000001
   -2    0    1    7    6    0.020678   -0.000000
   -2    0    1    8    6    0.001359    0.000001
   -2    0    1    1    7   -0.019484    0.000003
   -2    0    1    2    7   -0.019557    0.000001
   -2    0    1    3    7    0.089815    0.000001
   -2    0    1    4    7   -0.131874    0.000003
   -2    0    1    5    7    0.006761    0.000003
   -2    0    1    6    7    0.010020    0.000001
   -2    0    1    7    7    0.004908   -0.000009
   -2    0    1    8    7    0.000455   -0.000001
   -2    0    1    1    8    0.072990    0.000016
   -2    0    1    2    8    0.073003   -0.000015
   -2    0    1    3    8   -0.055139   -0.000005
   -2    0    1    4    8    0.053463    0.000001
   -2    0    1    5    8    0.004189    0.000013
   -2    0    1    6    8   -0.047597    0.000000
   -2    0    1    7    8    0.004186   -0.000010
   -2    0    1    8    8   -0.012346   -0.000002
   -2    0    2    1    1    0.008167   -0.000003
   -2    0    2    2    1    0.008187   -0.000045
   -2    0    2    3    1   -0.013563    0.000014
   -2    0    2    4    1    0.006964    0.000013
   -2    0    2    5    1   -0.012994   -0.000008
   -2    0    2    6    1   -0.011442   -0.000009
   -2    0    2    7    1    0.007962   -0.000011
   -2    0    2    8    1   -0.018529   -0.000011
   -2    0    2    1    2    0.008189    0.000046
   -2    0    2    2    2    0.008330    0.000004
   -2    0    2    3    2   -0.013646   -0.000022
   -2    0    2    4    2    0.006859   -0.000010
   -2    0    2    5    2    0.010948    0.000010
   -2    0    2    6    2   -0.001819    0.000004
   -2    0    2    7    2    0.002325   -0.000002
   -2    0    2    8    2    0.007600    0.000006
   -2    0    2    1    3    0.006964   -0.000015
   -2    0    2    2    3    0.006850    0.000018
   -2    0    2    3    3    0.003252    0.000007
   -2    0    2    4    3   -0.253056    0.000001
   -2    0    2    5    3    0.005843    0.000006
   -2    0    2    6    3   -0.016506    0.000008
   -2    0    2    7    3   -0.003334   -0.000001
   -2    0    2    8    3   -0.014646    0.000007
   -2    0    2    1    4   -0.013563   -0.000005
   -2    0    2    2    4   -0.013630   -0.000002
   -2    0    2    3    4    0.026896    0.000000
   -2    0    2    4    4    0.003247    0.000007
   -2    0    2    5    4   -0.010551    0.000003
   -2    0    2    6    4    0.011118   -0.000003
   -2    0    2    7    4   -0.002634   -0.000006
   -2    0    2    8    4    0.021455    0.000001
   -2    0    2    1    5   -0.012994    0.000007
   -2    0    2    2    5    0.010946   -0.000006
   -2    0    2    3    5   -0.010552   -0.000005
   -2    0    2    4    5    0.005846    0.000007
   -2    0    2    5    5   -0.055143    0.000003
   -2    0    2    6    5   -0.041901   -0.000005
   -2    0    2    7    5    0.053835   -0.000003
   -2    0    2    8    5   -0.040894   -0.000004
   -2    0    2    1    6   -0.011443    0.000010
   -2    0    2    2    6   -0.001820   -0.000006
   -2    0    2    3    6    0.011112   -0.000004
   -2    0    2    4    6   -0.016501    0.000000
   -2    0    2    5    6   -0.041903    0.000008
   -2    0    2    6    6   -0.055153    0.000001
   -2    0    2    7    6    0.053847    0.000001
   -2    0    2    8    6   -0.040886    0.000007
   -2    0    2    1    7   -0.018529    0.000015
   -2    0    2    2    7    0.007595    0.000001
   -2    0    2    3    7    0.021451   -0.000007
   -2    0    2    4    7   -0.014640    0.000004
   -2    0    2    5    7   -0.040893    0.000012
   -2    0    2    6    7   -0.040882   -0.000008
   -2    0    2    7    7    0.059403    0.000002
   -2    0    2    8    7   -0.045686    0.000003
   -2    0    2    1    8    0.007964    0.000011
   -2    0    2    2    8    0.002330   -0.000004
   -2    0    2    3    8   -0.002635   -0.000001
   -2    0    2    4    8   -0.003331    0.000002
   -2    0    2    5    8    0.053840    0.000005
   -2    0    2    6    8    0.053853   -0.000008
   -2    0    2    7    8   -0.054588   -0.000005
   -2    0    2    8    8    0.059409    0.000002
   -2    0    3    1    1    0.001331   -0.000004
   -2    0    3    2    1    0.010357   -0.000036
   -2    0    3    3    1    0.003117    0.000009
   -2    0    3    4    1    0.003118    0.000004
   -2    0    3    5    1    0.005012   -0.000012
   -2    0    3    6    1    0.011838   -0.000012
   -2    0    3    7    1   -0.005054   -0.000005
   -2    0    3    8    1   -0.005055   -0.000009
   -2    0    3    1    2    0.006224    0.000039
   -2    0    3    2    2   -0.012186    0.000011
   -2    0    3    3    2   -0.004342   -0.000018
   -2    0    3    4    2   -0.004327    0.000000
   -2    0    3    5    2    0.011879    0.000012
   -2    0    3    6    2    0.005013    0.000012
   -2    0    3    7    2   -0.005082    0.000002
   -2    0    3    8    2   -0.005077    0.000012
   -2    0    3    1    3   -0.001429   -0.000003
   -2    0    3    2    3    0.003612    0.000020
   -2    0    3    3    3   -0.007586   -0.000003
   -2    0    3    4    3   -0.012400    0.000001
   -2    0    3    5    3   -0.022824    0.000006
   -2    0    3    6    3   -0.022826   -0.000006
   -2    0    3    7    3    0.013459    0.000004
   -2    0    3    8    3    0.003333    0.000001
   -2    0    3    1    4   -0.001426   -0.000003
   -2    0    3    2    4    0.003625    0.000003
   -2    0    3    3    4   -0.012396    0.000000
   -2    0    3    4    4   -0.007592   -0.000002
   -2    0    3    5    4   -0.022821    0.000003
   -2    0    3    6    4   -0.022826   -0.000003
   -2    0    3    7    4    0.003333   -0.000001
   -2    0    3    8    4    0.013464   -0.000004
   -2    0    3    1    5   -0.005348    0.000009
   -2    0    3    2    5   -0.005242   -0.000009
   -2    0    3    3    5   -0.004962   -0.000013
   -2    0    3    4    5   -0.004959   -0.000004
   -2    0    3    5    5   -0.002154   -0.000001
   -2    0    3    6    5    0.007493   -0.000007
   -2    0    3    7    5   -0.003277   -0.000007
   -2    0    3    8    5   -0.003278   -0.000006
   -2    0    3    1    6   -0.004872    0.000013
   -2    0    3    2    6   -0.004986   -0.000000
   -2    0    3    3    6   -0.004874   -0.000011
   -2    0    3    4    6   -0.004871   -0.000002
   -2    0    3    5    6   -0.010835    0.000009
   -2    0    3    6    6   -0.012257   -0.000005
   -2    0    3    7    6    0.002662    0.000001
   -2    0    3    8    6    0.002665    0.000005
   -2    0    3    1    7   -0.004960    0.000015
   -2    0    3    2    7   -0.005243    0.000008
   -2    0    3    3    7   -0.005349   -0.000007
   -2    0    3    4    7   -0.004959   -0.000001
   -2    0    3    5    7   -0.004137    0.000010
   -2    0    3    6    7    0.000766   -0.000004
   -2    0    3    7    7    0.005066    0.000002
   -2    0    3    8    7   -0.004447    0.000008
   -2    0    3    1    8   -0.004961    0.000014
   -2    0    3    2    8   -0.005241    0.000002
   -2    0    3    3    8   -0.004963   -0.000011
   -2    0    3    4    8   -0.005349   -0.000001
   -2    0    3    5    8   -0.004135    0.000006
   -2    0    3    6    8    0.000765   -0.000006
   -2    0    3    7    8   -0.004447    0.000002
   -2    0    3    8    8    0.005074    0.000001
   -2    1   -2    1    1    0.001629    0.000005
   -2    1   -2    2    1   -0.006662   -0.000022
   -2    1   -2    3    1   -0.007278    0.000010
   -2    1   -2    4    1   -0.007277    0.000005
   -2    1   -2    5    1   -0.003977   -0.000001
   -2    1   -2    6    1    0.000457   -0.000009
   -2    1   -2    7    1   -0.002505    0.000003
   -2    1   -2    8    1   -0.002506   -0.000001
   -2    1   -2    1    2   -0.002044    0.000020
   -2    1   -2    2    2    0.005499   -0.000000
   -2    1   -2    3    2   -0.002050   -0.000016
   -2    1   -2    4    2   -0.002038   -0.000003
   -2    1   -2    5    2   -0.009986    0.000003
   -2    1   -2    6    2   -0.016053    0.000009
   -2    1   -2    7    2   -0.003968    0.000001
   -2    1   -2    8    2   -0.003964    0.000005
   -2    1   -2    1    3   -0.007277   -0.000010
   -2    1   -2    2    3   -0.006668    0.000018
   -2    1   -2    3    3    0.001632   -0.000004
   -2    1   -2    4    3   -0.007275   -0.000002
   -2    1   -2    5    3   -0.007778   -0.000001
   -2    1   -2    6    3   -0.006319   -0.000000
   -2    1   -2    7    3    0.007339    0.000004
   -2    1   -2    8    3   -0.017733   -0.000002
   -2    1   -2    1    4   -0.007279   -0.000005
   -2    1   -2    2    4   -0.006656    0.000004
   -2    1   -2    3    4   -0.007277    0.000002
   -2    1   -2    4    4    0.001621   -0.000001
   -2    1   -2    5    4   -0.007780   -0.000001
   -2    1   -2    6    4   -0.006323    0.000002
   -2    1   -2    7    4   -0.017733    0.000000
   -2    1   -2    8    4    0.007335    0.000001
   -2    1   -2    1    5    0.001759    0.000004
   -2    1   -2    2    5   -0.000090   -0.000003
   -2    1   -2    3    5   -0.016652   -0.000004
   -2    1   -2    4    5   -0.016651   -0.000002
   -2    1   -2    5    5    0.001479   -0.000004
   -2    1   -2    6    5   -0.006566   -0.000002
   -2    1   -2    7    5   -0.006275   -0.000002
   -2    1   -2    8    5   -0.006277   -0.000004
   -2    1   -2    1    6   -0.007728    0.000006
   -2    1   -2    2    6    0.006492    0.000000
   -2    1   -2    3    6   -0.016303   -0.000007
   -2    1   -2    4    6   -0.016302   -0.000004
   -2    1   -2    5    6   -0.003733   -0.000000
   -2    1   -2    6    6   -0.010282    0.000000
   -2    1   -2    7    6   -0.003733    0.000000
   -2    1   -2    8    6   -0.003734    0.000000
   -2    1   -2    1    7   -0.006519    0.000000
   -2    1   -2    2    7   -0.000361    0.000005
   -2    1   -2    3    7   -0.007958   -0.000003
   -2    1   -2    4    7   -0.004645   -0.000003
   -2    1   -2    5    7   -0.006276    0.000001
   -2    1   -2    6    7   -0.006565    0.000001
   -2    1   -2    7    7    0.001478    0.000003
   -2    1   -2    8    7   -0.006278    0.000004
   -2    1   -2    1    8   -0.006522    0.000001
   -2    1   -2    2    8   -0.000359    0.000002
   -2    1   -2    3    8   -0.004645   -0.000005
   -2    1   -2    4    8   -0.007962   -0.000001
   -2    1   -2    5    8   -0.006276   -0.000002
   -2    1   -2    6    8   -0.006567    0.000000
   -2    1   -2    7    8   -0.006275    0.000003
   -2    1   -2    8    8    0.001480    0.000001
   -2    1   -1    1    1   -0.002218   -0.000004
   -2    1   -1    2    1   -0.009269   -0.000023
   -2    1   -1    3    1   -0.017731    0.000015
   -2    1   -1    4    1   -0.048789   -0.000001
   -2    1   -1    5    1    0.007339   -0.000005
   -2    1   -1    6    1   -0.006319    0.000002
   -2    1   -1    7    1   -0.007778    0.000001
   -2    1   -1    8    1   -0.017733    0.000003
   -2    1   -1    1    2   -0.001281    0.000021
   -2    1   -1    2    2   -0.005911    0.000001
   -2    1   -1    3    2   -0.008225   -0.000031
   -2    1   -1    4    2   -0.017772   -0.000004
   -2    1   -1    5    2   -0.003967    0.000002
   -2    1   -1    6    2   -0.016054   -0.000007
   -2    1   -1    7    2   -0.009988   -0.000003
   -2    1   -1    8    2   -0.003966   -0.000006
   -2    1   -1    1    3    0.007606   -0.000013
   -2    1   -1    2    3    0.000309    0.000024
   -2    1   -1    3    3   -0.006054   -0.000001
   -2    1   -1    4    3   -0.009202   -0.000006
   -2    1   -1    5    3   -0.002505   -0.000004
   -2    1   -1    6    3    0.000456    0.000007
   -2    1   -1    7    3   -0.003978    0.000001
   -2    1   -1    8    3   -0.002505    0.000003
   -2    1   -1    1    4   -0.022393   -0.000001
   -2    1   -1    2    4    0.007582    0.000007
   -2    1   -1    3    4   -0.001253   -0.000001
   -2    1   -1    4    4   -0.002243   -0.000004
   -2    1   -1    5    4   -0.017733   -0.000001
   -2    1   -1    6    4   -0.006321   -0.000003
   -2    1   -1    7    4   -0.007779    0.000001
   -2    1   -1    8    4    0.007336    0.000000
   -2    1   -1    1    5    0.012624   -0.000001
   -2    1   -1    2    5    0.011035   -0.000005
   -2    1   -1    3    5   -0.018030   -0.000001
   -2    1   -1    4    5   -0.048894   -0.000002
   -2    1   -1    5    5    0.015404   -0.000008
   -2    1   -1    6    5   -0.006776    0.000003
   -2    1   -1    7    5   -0.019911   -0.000005
   -2    1   -1    8    5   -0.029020   -0.000006
   -2    1   -1    1    6    0.011051    0.000006
   -2    1   -1    2    6    0.012614    0.000002
   -2    1   -1    3    6   -0.018033   -0.000002
   -2    1   -1    4    6   -0.048881    0.000002
   -2    1   -1    5    6   -0.000034   -0.000004
   -2    1   -1    6    6   -0.014596    0.000007
   -2    1   -1    7    6   -0.020747   -0.000002
   -2    1   -1    8    6   -0.019890   -0.000002
   -2    1   -1    1    7    0.022789   -0.000001
   -2    1   -1    2    7    0.022790    0.000005
   -2    1   -1    3    7   -0.018417   -0.000002
   -2    1   -1    4    7   -0.020766    0.000003
   -2    1   -1    5    7    0.009153    0.000004
   -2    1   -1    6    7   -0.007680    0.000000
   -2    1   -1    7    7   -0.014620    0.000003
   -2    1   -1    8    7   -0.006783    0.000002
   -2    1   -1    1    8    0.004465   -0.000006
   -2    1   -1    2    8    0.004447    0.000005
   -2    1   -1    3    8    0.002308    0.000000
   -2    1   -1    4    8   -0.011970   -0.000001
   -2    1   -1    5    8   -0.009124   -0.000003
   -2    1   -1    6    8    0.009157    0.000006
   -2    1   -1    7    8   -0.000048   -0.000000
   -2    1   -1    8    8    0.015393   -0.000002
   -2    1    0    1    1   -0.013641   -0.000003
   -2    1    0    2    1   -0.005847   -0.000033
   -2    1    0    3    1    0.033593    0.000023
   -2    1    0    4    1    0.018620   -0.000013
   -2    1    0    5    1   -0.003335   -0.000004
   -2    1    0    6    1    0.005819    0.000009
   -2    1    0    7    1   -0.016493   -0.000004
   -2    1    0    8    1   -0.014639   -0.000004
   -2    1    0    1    2   -0.005805    0.000032
   -2    1    0    2    2   -0.013475    0.000004
   -2    1    0    3    2    0.033455   -0.000037
   -2    1    0    4    2    0.018596    0.000016
   -2    1    0    5    2    0.007970    0.000000
   -2    1    0    6    2   -0.012983   -0.000010
   -2    1    0    7    2   -0.011444   -0.000009
   -2    1    0    8    2   -0.018547   -0.000013
   -2    1    0    1    3    0.000957   -0.000019
   -2    1    0    2    3    0.000855    0.000029
   -2    1    0    3    3    0.006889   -0.000003
   -2    1    0    4    3    0.005382   -0.000004
   -2    1    0    5    3    0.002323    0.000001
   -2    1    0    6    3    0.010910    0.000009
   -2    1    0    7    3   -0.001853    0.000005
   -2    1    0    8    3    0.007582    0.000005
   -2    1    0    1    4   -0.005483   -0.000018
   -2    1    0    2    4   -0.005587    0.000016
   -2    1    0    3    4    0.015449    0.000005
   -2    1    0    4    4    0.042174   -0.000006
   -2    1    0    5    4   -0.002627   -0.000006
   -2    1    0    6    4   -0.010577    0.000007
   -2    1    0    7    4    0.011100    0.000003
   -2    1    0    8    4    0.021446    0.000005
   -2    1    0    1    5   -0.007724    0.000001
   -2    1    0    2    5    0.147849   -0.000014
   -2    1    0    3    5    0.014358    0.000000
   -2    1    0    4    5    0.017677   -0.000017
   -2    1    0    5    5    0.004905   -0.000006
   -2    1    0    6    5    0.006715   -0.000001
   -2    1    0    7    5    0.010027   -0.000006
   -2    1    0    8    5    0.000458   -0.000007
   -2    1    0    1    6   -0.019515    0.000012
   -2    1    0    2    6    0.089803    0.000001
   -2    1    0    3    6   -0.019520   -0.000008
   -2    1    0    4    6   -0.131734    0.000003
   -2    1    0    5    6    0.006755   -0.000001
   -2    1    0    6    6    0.004903    0.000004
[...]
    3   -2    1    2    7   -0.016293    0.000008
    3   -2    1    3    7    0.006477   -0.000000
    3   -2    1    4    7   -0.016296   -0.000001
    3   -2    1    5    7   -0.003751    0.000000
    3   -2    1    6    7   -0.003726   -0.000000
    3   -2    1    7    7   -0.010318    0.000000
    3   -2    1    8    7   -0.003753    0.000000
    3   -2    1    1    8   -0.006541   -0.000003
    3   -2    1    2    8   -0.004639    0.000004
    3   -2    1    3    8   -0.000374   -0.000001
    3   -2    1    4    8   -0.007970    0.000000
    3   -2    1    5    8   -0.006273    0.000003
    3   -2    1    6    8   -0.006244   -0.000002
    3   -2    1    7    8   -0.006566    0.000000
    3   -2    1    8    8    0.001486    0.000001
    3   -1   -2    1    1   -0.012335   -0.000011
    3   -1   -2    2    1    0.006168   -0.000039
    3   -1   -2    3    1   -0.004302    0.000014
    3   -1   -2    4    1   -0.004305    0.000004
    3   -1   -2    5    1   -0.016057   -0.000009
    3   -1   -2    6    1   -0.009982   -0.000003
    3   -1   -2    7    1   -0.003954   -0.000002
    3   -1   -2    8    1   -0.003957   -0.000004
    3   -1   -2    1    2    0.010372    0.000036
    3   -1   -2    2    2    0.001474    0.000004
    3   -1   -2    3    2    0.003064   -0.000016
    3   -1   -2    4    2    0.003079    0.000003
    3   -1   -2    5    2    0.000494    0.000008
    3   -1   -2    6    2   -0.003973    0.000001
    3   -1   -2    7    2   -0.002504   -0.000003
    3   -1   -2    8    2   -0.002500    0.000002
    3   -1   -2    1    3    0.003666   -0.000014
    3   -1   -2    2    3   -0.001499    0.000008
    3   -1   -2    3    3   -0.007568    0.000004
    3   -1   -2    4    3   -0.012401   -0.000002
    3   -1   -2    5    3   -0.006301    0.000001
    3   -1   -2    6    3   -0.007777    0.000003
    3   -1   -2    7    3    0.007331   -0.000002
    3   -1   -2    8    3   -0.017721    0.000001
    3   -1   -2    1    4    0.003667   -0.000010
    3   -1   -2    2    4   -0.001485   -0.000002
    3   -1   -2    3    4   -0.012402    0.000001
    3   -1   -2    4    4   -0.007576    0.000001
    3   -1   -2    5    4   -0.006301   -0.000002
    3   -1   -2    6    4   -0.007777   -0.000002
    3   -1   -2    7    4   -0.017721    0.000001
    3   -1   -2    8    4    0.007327   -0.000004
    3   -1   -2    1    5   -0.007494    0.000010
    3   -1   -2    2    5    0.008696   -0.000012
    3   -1   -2    3    5   -0.001692   -0.000008
    3   -1   -2    4    5   -0.001688   -0.000000
    3   -1   -2    5    5   -0.012269    0.000005
    3   -1   -2    6    5   -0.010821   -0.000009
    3   -1   -2    7    5    0.002658   -0.000004
    3   -1   -2    8    5    0.002657   -0.000003
    3   -1   -2    1    6    0.008658    0.000012
    3   -1   -2    2    6   -0.007419   -0.000010
    3   -1   -2    3    6   -0.001665    0.000004
    3   -1   -2    4    6   -0.001662    0.000005
    3   -1   -2    5    6    0.007502    0.000007
    3   -1   -2    6    6   -0.002133    0.000001
    3   -1   -2    7    6   -0.003269    0.000005
    3   -1   -2    8    6   -0.003273    0.000007
    3   -1   -2    1    7    0.002951    0.000008
    3   -1   -2    2    7    0.002983   -0.000005
    3   -1   -2    3    7   -0.003544   -0.000001
    3   -1   -2    4    7    0.000665    0.000003
    3   -1   -2    5    7    0.000757    0.000006
    3   -1   -2    6    7   -0.004123   -0.000009
    3   -1   -2    7    7    0.005078   -0.000002
    3   -1   -2    8    7   -0.004435   -0.000005
    3   -1   -2    1    8    0.002950    0.000007
    3   -1   -2    2    8    0.002985   -0.000011
    3   -1   -2    3    8    0.000660   -0.000003
    3   -1   -2    4    8   -0.003544    0.000001
    3   -1   -2    5    8    0.000758    0.000004
    3   -1   -2    6    8   -0.004123   -0.000008
    3   -1   -2    7    8   -0.004435   -0.000005
    3   -1   -2    8    8    0.005081   -0.000001
    3   -1   -1    1    1    0.007696   -0.000005
    3   -1   -1    2    1   -0.000010   -0.000040
    3   -1   -1    3    1    0.000107    0.000021
    3   -1   -1    4    1   -0.002607    0.000009
    3   -1   -1    5    1    0.000486   -0.000004
    3   -1   -1    6    1   -0.006928   -0.000007
    3   -1   -1    7    1   -0.006941   -0.000000
    3   -1   -1    8    1    0.001093    0.000001
    3   -1   -1    1    2    0.000007    0.000037
    3   -1   -1    2    2    0.007844    0.000002
    3   -1   -1    3    2   -0.000002   -0.000028
    3   -1   -1    4    2   -0.002680   -0.000004
    3   -1   -1    5    2    0.006969    0.000009
    3   -1   -1    6    2    0.000163    0.000002
    3   -1   -1    7    2    0.008267   -0.000002
    3   -1   -1    8    2    0.002651    0.000005
    3   -1   -1    1    3    0.000106   -0.000023
    3   -1   -1    2    3   -0.000020    0.000032
    3   -1   -1    3    3    0.007698    0.000003
    3   -1   -1    4    3   -0.002605   -0.000005
    3   -1   -1    5    3    0.006977   -0.000005
    3   -1   -1    6    3    0.008239    0.000005
    3   -1   -1    7    3    0.000187    0.000002
    3   -1   -1    8    3    0.002692   -0.000004
    3   -1   -1    1    4    0.025934   -0.000008
    3   -1   -1    2    4    0.025846    0.000004
    3   -1   -1    3    4    0.025936    0.000004
    3   -1   -1    4    4    0.011010   -0.000000
    3   -1   -1    5    4   -0.013641    0.000002
    3   -1   -1    6    4   -0.015386   -0.000002
    3   -1   -1    7    4   -0.015395    0.000003
    3   -1   -1    8    4    0.043400   -0.000005
    3   -1   -1    1    5   -0.003542    0.000003
    3   -1   -1    2    5    0.002982    0.000001
    3   -1   -1    3    5    0.002950   -0.000007
    3   -1   -1    4    5    0.000666   -0.000005
    3   -1   -1    5    5    0.003542    0.000000
    3   -1   -1    6    5    0.005274    0.000002
    3   -1   -1    7    5    0.005284   -0.000005
    3   -1   -1    8    5   -0.001881   -0.000002
    3   -1   -1    1    6   -0.001664   -0.000003
    3   -1   -1    2    6   -0.007422    0.000008
    3   -1   -1    3    6    0.008657   -0.000010
    3   -1   -1    4    6   -0.001662   -0.000005
    3   -1   -1    5    6    0.005281   -0.000001
    3   -1   -1    6    6    0.003482   -0.000000
    3   -1   -1    7    6    0.005280    0.000003
    3   -1   -1    8    6   -0.001873    0.000001
    3   -1   -1    1    7   -0.001689    0.000011
    3   -1   -1    2    7    0.008694    0.000010
    3   -1   -1    3    7   -0.007496   -0.000008
    3   -1   -1    4    7   -0.001687   -0.000004
    3   -1   -1    5    7    0.005285    0.000006
    3   -1   -1    6    7    0.005274   -0.000005
    3   -1   -1    7    7    0.003539   -0.000000
    3   -1   -1    8    7   -0.001882    0.000001
    3   -1   -1    1    8    0.000663    0.000005
    3   -1   -1    2    8    0.002983    0.000012
    3   -1   -1    3    8    0.002950   -0.000005
    3   -1   -1    4    8   -0.003542   -0.000003
    3   -1   -1    5    8    0.008570    0.000004
    3   -1   -1    6    8    0.008546   -0.000002
    3   -1   -1    7    8    0.008568   -0.000002
    3   -1   -1    8    8   -0.005286    0.000000
    3   -1    0    1    1   -0.007570   -0.000005
    3   -1    0    2    1   -0.001493   -0.000012
    3   -1    0    3    1    0.003668    0.000012
    3   -1    0    4    1   -0.012404    0.000004
    3   -1    0    5    1    0.000188   -0.000003
    3   -1    0    6    1    0.008242   -0.000007
    3   -1    0    7    1    0.006977    0.000003
    3   -1    0    8    1    0.002693    0.000005
    3   -1    0    1    2    0.003071    0.000022
    3   -1    0    2    2    0.001472   -0.000004
    3   -1    0    3    2    0.010363   -0.000030
    3   -1    0    4    2    0.003078   -0.000012
    3   -1    0    5    2    0.008269    0.000006
    3   -1    0    6    2    0.000163    0.000001
    3   -1    0    7    2    0.006968   -0.000006
    3   -1    0    8    2    0.002651   -0.000006
    3   -1    0    1    3   -0.004302   -0.000015
    3   -1    0    2    3    0.006160    0.000033
    3   -1    0    3    3   -0.012332    0.000009
    3   -1    0    4    3   -0.004301    0.000000
    3   -1    0    5    3   -0.006943   -0.000001
    3   -1    0    6    3   -0.006931    0.000005
    3   -1    0    7    3    0.000484    0.000002
    3   -1    0    8    3    0.001093   -0.000000
    3   -1    0    1    4   -0.012404   -0.000003
    3   -1    0    2    4   -0.001485    0.000006
    3   -1    0    3    4    0.003671    0.000007
    3   -1    0    4    4   -0.007576    0.000001
    3   -1    0    5    4   -0.015396   -0.000003
    3   -1    0    6    4   -0.015386    0.000003
    3   -1    0    7    4   -0.013642   -0.000001
    3   -1    0    8    4    0.043400    0.000003
    3   -1    0    1    5    0.021446   -0.000001
    3   -1    0    2    5   -0.018547    0.000009
    3   -1    0    3    5    0.007581    0.000001
    3   -1    0    4    5   -0.014635   -0.000007
    3   -1    0    5    5    0.005080    0.000002
    3   -1    0    6    5   -0.004124    0.000007
    3   -1    0    7    5    0.000757   -0.000006
    3   -1    0    8    5   -0.004434    0.000004
    3   -1    0    1    6   -0.010576    0.000001
    3   -1    0    2    6   -0.012984    0.000002
    3   -1    0    3    6    0.010909   -0.000005
    3   -1    0    4    6    0.005816    0.000010
    3   -1    0    5    6   -0.003271   -0.000003
    3   -1    0    6    6   -0.002136   -0.000001
    3   -1    0    7    6    0.007500   -0.000006
    3   -1    0    8    6   -0.003273   -0.000007
    3   -1    0    1    7    0.011101    0.000001
    3   -1    0    2    7   -0.011445    0.000007
    3   -1    0    3    7   -0.001853   -0.000004
    3   -1    0    4    7   -0.016490   -0.000010
    3   -1    0    5    7    0.002658    0.000004
    3   -1    0    6    7   -0.010823    0.000008
    3   -1    0    7    7   -0.012270   -0.000004
    3   -1    0    8    7    0.002659    0.000002
    3   -1    0    1    8   -0.002628   -0.000002
    3   -1    0    2    8    0.007973    0.000018
    3   -1    0    3    8    0.002325   -0.000001
    3   -1    0    4    8   -0.003336   -0.000001
    3   -1    0    5    8   -0.004434    0.000004
    3   -1    0    6    8   -0.004124    0.000006
    3   -1    0    7    8    0.000757   -0.000003
    3   -1    0    8    8    0.005083    0.000001
    3    0   -2    1    1    0.001331   -0.000004
    3    0   -2    2    1    0.010357   -0.000036
    3    0   -2    3    1    0.003117    0.000009
    3    0   -2    4    1    0.003118    0.000004
    3    0   -2    5    1    0.005012   -0.000012
    3    0   -2    6    1    0.011838   -0.000012
    3    0   -2    7    1   -0.005054   -0.000005
    3    0   -2    8    1   -0.005055   -0.000009
    3    0   -2    1    2    0.006224    0.000039
    3    0   -2    2    2   -0.012186    0.000011
    3    0   -2    3    2   -0.004342   -0.000018
    3    0   -2    4    2   -0.004327    0.000000
    3    0   -2    5    2    0.011879    0.000012
    3    0   -2    6    2    0.005013    0.000012
    3    0   -2    7    2   -0.005082    0.000002
    3    0   -2    8    2   -0.005077    0.000012
    3    0   -2    1    3   -0.001429   -0.000003
    3    0   -2    2    3    0.003612    0.000020
    3    0   -2    3    3   -0.007586   -0.000003
    3    0   -2    4    3   -0.012400    0.000001
    3    0   -2    5    3   -0.022824    0.000006
    3    0   -2    6    3   -0.022826   -0.000006
    3    0   -2    7    3    0.013459    0.000004
    3    0   -2    8    3    0.003333    0.000001
    3    0   -2    1    4   -0.001426   -0.000003
    3    0   -2    2    4    0.003625    0.000003
    3    0   -2    3    4   -0.012396    0.000000
    3    0   -2    4    4   -0.007592   -0.000002
    3    0   -2    5    4   -0.022821    0.000003
    3    0   -2    6    4   -0.022826   -0.000003
    3    0   -2    7    4    0.003333   -0.000001
    3    0   -2    8    4    0.013464   -0.000004
    3    0   -2    1    5   -0.005348    0.000009
    3    0   -2    2    5   -0.005242   -0.000009
    3    0   -2    3    5   -0.004962   -0.000013
    3    0   -2    4    5   -0.004959   -0.000004
    3    0   -2    5    5   -0.002154   -0.000001
    3    0   -2    6    5    0.007493   -0.000007
    3    0   -2    7    5   -0.003277   -0.000007
    3    0   -2    8    5   -0.003278   -0.000006
    3    0   -2    1    6   -0.004872    0.000013
    3    0   -2    2    6   -0.004986   -0.000000
    3    0   -2    3    6   -0.004874   -0.000011
    3    0   -2    4    6   -0.004871   -0.000002
    3    0   -2    5    6   -0.010835    0.000009
    3    0   -2    6    6   -0.012257   -0.000005
    3    0   -2    7    6    0.002662    0.000001
    3    0   -2    8    6    0.002665    0.000005
    3    0   -2    1    7   -0.004960    0.000015
    3    0   -2    2    7   -0.005243    0.000008
    3    0   -2    3    7   -0.005349   -0.000007
    3    0   -2    4    7   -0.004959   -0.000001
    3    0   -2    5    7   -0.004137    0.000010
    3    0   -2    6    7    0.000766   -0.000004
    3    0   -2    7    7    0.005066    0.000002
    3    0   -2    8    7   -0.004447    0.000008
    3    0   -2    1    8   -0.004961    0.000014
    3    0   -2    2    8   -0.005241    0.000002
    3    0   -2    3    8   -0.004963   -0.000011
    3    0   -2    4    8   -0.005349   -0.000001
    3    0   -2    5    8   -0.004135    0.000006
    3    0   -2    6    8    0.000765   -0.000006
    3    0   -2    7    8   -0.004447    0.000002
    3    0   -2    8    8    0.005074    0.000001
    3    0   -1    1    1   -0.007587    0.000002
    3    0   -1    2    1    0.003620   -0.000025
    3    0   -1    3    1   -0.001429    0.000002
    3    0   -1    4    1   -0.012401   -0.000001
    3    0   -1    5    1    0.000193   -0.000003
    3    0   -1    6    1    0.006949   -0.000010
    3    0   -1    7    1    0.008294   -0.000000
    3    0   -1    8    1    0.002688   -0.000003
    3    0   -1    1    2   -0.004335    0.000024
    3    0   -1    2    2   -0.012187   -0.000009
    3    0   -1    3    2    0.006214   -0.000032
    3    0   -1    4    2   -0.004328   -0.000009
    3    0   -1    5    2   -0.006960    0.000005
    3    0   -1    6    2    0.000459    0.000002
    3    0   -1    7    2   -0.006962   -0.000002
    3    0   -1    8    2    0.001065   -0.000001
    3    0   -1    1    3    0.003118   -0.000009
    3    0   -1    2    3    0.010348    0.000030
    3    0   -1    3    3    0.001333    0.000003
    3    0   -1    4    3    0.003121   -0.000002
    3    0   -1    5    3    0.008293   -0.000001
    3    0   -1    6    3    0.006947    0.000008
    3    0   -1    7    3    0.000191    0.000001
    3    0   -1    8    3    0.002686    0.000003
    3    0   -1    1    4   -0.012399   -0.000000
    3    0   -1    2    4    0.003626    0.000005
    3    0   -1    3    4   -0.001424    0.000003
    3    0   -1    4    4   -0.007592    0.000002
    3    0   -1    5    4   -0.015404    0.000002
    3    0   -1    6    4   -0.013652   -0.000001
    3    0   -1    7    4   -0.015403   -0.000002
    3    0   -1    8    4    0.043424    0.000002
    3    0   -1    1    5    0.021453    0.000009
    3    0   -1    2    5    0.007596   -0.000005
    3    0   -1    3    5   -0.018532   -0.000015
    3    0   -1    4    5   -0.014639   -0.000010
    3    0   -1    5    5    0.005070   -0.000001
    3    0   -1    6    5    0.000764    0.000002
    3    0   -1    7    5   -0.004137   -0.000011
    3    0   -1    8    5   -0.004445   -0.000010
    3    0   -1    1    6    0.011115    0.000007
    3    0   -1    2    6   -0.001821    0.000006
    3    0   -1    3    6   -0.011446   -0.000009
    3    0   -1    4    6   -0.016499   -0.000005
    3    0   -1    5    6    0.002664    0.000001
    3    0   -1    6    6   -0.012259    0.000004
    3    0   -1    7    6   -0.010836   -0.000008
    3    0   -1    8    6    0.002665   -0.000006
    3    0   -1    1    7   -0.010551    0.000005
    3    0   -1    2    7    0.010944    0.000003
    3    0   -1    3    7   -0.012996   -0.000006
    3    0   -1    4    7    0.005846   -0.000012
    3    0   -1    5    7   -0.003278    0.000006
    3    0   -1    6    7    0.007491    0.000006
    3    0   -1    7    7   -0.002156    0.000001
    3    0   -1    8    7   -0.003279    0.000004
    3    0   -1    1    8   -0.002632    0.000004
    3    0   -1    2    8    0.002329    0.000007
    3    0   -1    3    8    0.007963   -0.000009
    3    0   -1    4    8   -0.003330   -0.000002
    3    0   -1    5    8   -0.004445    0.000002
    3    0   -1    6    8    0.000764    0.000007
    3    0   -1    7    8   -0.004136   -0.000003
    3    0   -1    8    8    0.005074   -0.000001
    3    1   -2    1    1    0.001629    0.000005
    3    1   -2    2    1   -0.006662   -0.000022
    3    1   -2    3    1   -0.007278    0.000010
    3    1   -2    4    1   -0.007277    0.000005
    3    1   -2    5    1   -0.003977   -0.000001
    3    1   -2    6    1    0.000457   -0.000009
    3    1   -2    7    1   -0.002505    0.000003
    3    1   -2    8    1   -0.002506   -0.000001
    3    1   -2    1    2   -0.002044    0.000020
    3    1   -2    2    2    0.005499   -0.000000
    3    1   -2    3    2   -0.002050   -0.000016
    3    1   -2    4    2   -0.002038   -0.000003
    3    1   -2    5    2   -0.009986    0.000003
    3    1   -2    6    2   -0.016053    0.000009
    3    1   -2    7    2   -0.003968    0.000001
    3    1   -2    8    2   -0.003964    0.000005
    3    1   -2    1    3   -0.007277   -0.000010
    3    1   -2    2    3   -0.006668    0.000018
    3    1   -2    3    3    0.001632   -0.000004
    3    1   -2    4    3   -0.007275   -0.000002
    3    1   -2    5    3   -0.007778   -0.000001
    3    1   -2    6    3   -0.006319   -0.000000
    3    1   -2    7    3    0.007339    0.000004
    3    1   -2    8    3   -0.017733   -0.000002
    3    1   -2    1    4   -0.007279   -0.000005
    3    1   -2    2    4   -0.006656    0.000004
    3    1   -2    3    4   -0.007277    0.000002
    3    1   -2    4    4    0.001621   -0.000001
    3    1   -2    5    4   -0.007780   -0.000001
    3    1   -2    6    4   -0.006323    0.000002
    3    1   -2    7    4   -0.017733    0.000000
    3    1   -2    8    4    0.007335    0.000001
    3    1   -2    1    5    0.001759    0.000004
    3    1   -2    2    5   -0.000090   -0.000003
    3    1   -2    3    5   -0.016652   -0.000004
    3    1   -2    4    5   -0.016651   -0.000002
    3    1   -2    5    5    0.001479   -0.000004
    3    1   -2    6    5   -0.006566   -0.000002
    3    1   -2    7    5   -0.006275   -0.000002
    3    1   -2    8    5   -0.006277   -0.000004
    3    1   -2    1    6   -0.007728    0.000006
    3    1   -2    2    6    0.006492    0.000000
    3    1   -2    3    6   -0.016303   -0.000007
    3    1   -2    4    6   -0.016302   -0.000004
    3    1   -2    5    6   -0.003733   -0.000000
    3    1   -2    6    6   -0.010282    0.000000
    3    1   -2    7    6   -0.003733    0.000000
    3    1   -2    8    6   -0.003734    0.000000
    3    1   -2    1    7   -0.006519    0.000000
    3    1   -2    2    7   -0.000361    0.000005
    3    1   -2    3    7   -0.007958   -0.000003
    3    1   -2    4    7   -0.004645   -0.000003
    3    1   -2    5    7   -0.006276    0.000001
    3    1   -2    6    7   -0.006565    0.000001
    3    1   -2    7    7    0.001478    0.000003
    3    1   -2    8    7   -0.006278    0.000004
    3    1   -2    1    8   -0.006522    0.000001
    3    1   -2    2    8   -0.000359    0.000002
    3    1   -2    3    8   -0.004645   -0.000005
    3    1   -2    4    8   -0.007962   -0.000001
    3    1   -2    5    8   -0.006276   -0.000002
    3    1   -2    6    8   -0.006567    0.000000
    3    1   -2    7    8   -0.006275    0.000003
    3    1   -2    8    8    0.001480    0.000001
