    2    2    1    1
  0.2254527E+02  0.3995153E-09  0.3995153E-09  0.3995153E-09  0.5000000E-15
  1.000000000000000E-004
  CAR 
 unknown system                          
      8     80     18
 
  0.5000000E+00  0.5000000E+00  0.5000000E+00  0.1250000E-01
      1         -8.307973   1.000000
      2         -8.307953   1.000000
      3         -3.853281   1.000000
      4         -3.853249   1.000000
      5          1.520433   1.000000
      6          1.520444   1.000000
      7          1.726675   1.000000
      8          1.726689   1.000000
      9          3.810196   0.000000
     10          3.810267   0.000000
     11          7.387392   0.000000
     12          7.387457   0.000000
     13          7.466786   0.000000
     14          7.466855   0.000000
     15         10.523776   0.000000
     16         10.523837   0.000000
     17         13.195916   0.000000
     18         13.196084   0.000000
 
  0.4736842E+00  0.4736842E+00  0.4736842E+00  0.1250000E-01
      1         -8.327004   1.000000
      2         -8.326984   1.000000
      3         -3.817460   1.000000
      4         -3.817429   1.000000
      5          1.525885   1.000000
      6          1.525897   1.000000
      7          1.732054   1.000000
      8          1.732289   1.000000
      9          3.815834   0.000000
     10          3.815905   0.000000
     11          7.390342   0.000000
     12          7.390407   0.000000
     13          7.470096   0.000000
     14          7.470436   0.000000
     15         10.526694   0.000000
     16         10.526753   0.000000
     17         13.066967   0.000000
     18         13.067234   0.000000
 
  0.4473684E+00  0.4473684E+00  0.4473684E+00  0.1250000E-01
      1         -8.382114   1.000000
      2         -8.382095   1.000000
      3         -3.712053   1.000000
      4         -3.712023   1.000000
      5          1.542227   1.000000
      6          1.542239   1.000000
      7          1.748383   1.000000
      8          1.748849   1.000000
      9          3.832718   0.000000
     10          3.832788   0.000000
     11          7.398736   0.000000
     12          7.398799   0.000000
     13          7.479817   0.000000
     14          7.480483   0.000000
     15         10.532678   0.000000
     16         10.532729   0.000000
     17         12.754634   0.000000
     18         12.754811   0.000000
 
  0.4210526E+00  0.4210526E+00  0.4210526E+00  0.1250000E-01
      1         -8.467985   1.000000
      2         -8.467967   1.000000
      3         -3.542632   1.000000
      4         -3.542605   1.000000
      5          1.569420   1.000000
      6          1.569431   1.000000
      7          1.775627   1.000000
      8          1.776317   1.000000
      9          3.860622   0.000000
     10          3.860691   0.000000
     11          7.411101   0.000000
     12          7.411161   0.000000
     13          7.494529   0.000000
     14          7.495518   0.000000
     15         10.531424   0.000000
     16         10.531461   0.000000
     17         12.372445   0.000000
     18         12.372620   0.000000
 
  0.3947368E+00  0.3947368E+00  0.3947368E+00  0.1250000E-01
      1         -8.577411   1.000000
      2         -8.577396   1.000000
      3         -3.316515   1.000000
      4         -3.316489   1.000000
      5          1.606981   1.000000
      6          1.606992   1.000000
      7          1.813362   1.000000
      8          1.814268   1.000000
      9          3.899312   0.000000
     10          3.899380   0.000000
     11          7.424967   0.000000
     12          7.425023   0.000000
     13          7.511746   0.000000
     14          7.513049   0.000000
     15         10.498615   0.000000
     16         10.498630   0.000000
     17         12.001156   0.000000
     18         12.001401   0.000000
 
  0.3684211E+00  0.3684211E+00  0.3684211E+00  0.1250000E-01
      1         -8.702916   1.000000
      2         -8.702902   1.000000
      3         -3.041642   1.000000
      4         -3.041620   1.000000
      5          1.654730   1.000000
      6          1.654742   1.000000
      7          1.861391   1.000000
      8          1.862501   1.000000
      9          3.948287   0.000000
     10          3.948353   0.000000
     11          7.436842   0.000000
     12          7.436894   0.000000
     13          7.527960   0.000000
     14          7.529562   0.000000
     15         10.387542   0.000000
     16         10.387547   0.000000
     17         11.712224   0.000000
     18         11.712464   0.000000
 
  0.3421053E+00  0.3421053E+00  0.3421053E+00  0.1250000E-01
      1         -8.837721   1.000000
      2         -8.837710   1.000000
      3         -2.725282   1.000000
      4         -2.725262   1.000000
      5          1.712259   1.000000
      6          1.712271   1.000000
      7          1.919324   1.000000
      8          1.920623   1.000000
      9          4.006812   0.000000
     10          4.006876   0.000000
     11          7.442290   0.000000
     12          7.442336   0.000000
     13          7.538614   0.000000
     14          7.540494   0.000000
     15         10.152557   0.000000
     16         10.152566   0.000000
     17         11.562256   0.000000
     18         11.562501   0.000000
 
  0.3157895E+00  0.3157895E+00  0.3157895E+00  0.1250000E-01
      1         -8.976110   1.000000
      2         -8.976100   1.000000
      3         -2.373947   1.000000
      4         -2.373930   1.000000
      5          1.778872   1.000000
      6          1.778884   1.000000
      7          1.986474   1.000000
      8          1.987940   1.000000
      9          4.073744   0.000000
     10          4.073805   0.000000
     11          7.435986   0.000000
     12          7.436025   0.000000
     13          7.538179   0.000000
     14          7.540310   0.000000
     15          9.807548   0.000000
     16          9.807552   0.000000
     17         11.541369   0.000000
     18         11.541609   0.000000
 
  0.2894737E+00  0.2894737E+00  0.2894737E+00  0.1250000E-01
      1         -9.113522   1.000000
      2         -9.113515   1.000000
      3         -1.992967   1.000000
      4         -1.992952   1.000000
      5          1.853818   1.000000
      6          1.853830   1.000000
      7          2.062109   1.000000
      8          2.063719   1.000000
      9          4.147371   0.000000
     10          4.147428   0.000000
     11          7.412639   0.000000
     12          7.412672   0.000000
     13          7.520947   0.000000
     14          7.523290   0.000000
     15          9.403474   0.000000
     16          9.403490   0.000000
     17         11.598502   0.000000
     18         11.598868   0.000000
 
  0.2631579E+00  0.2631579E+00  0.2631579E+00  0.1250000E-01
      1         -9.246432   1.000000
      2         -9.246426   1.000000
      3         -1.586874   1.000000
      4         -1.586862   1.000000
      5          1.936100   1.000000
      6          1.936112   1.000000
      7          2.145234   1.000000
      8          2.146958   1.000000
      9          4.225088   0.000000
     10          4.225141   0.000000
     11          7.367813   0.000000
     12          7.367841   0.000000
     13          7.481911   0.000000
     14          7.484418   0.000000
     15          8.977107   0.000000
     16          8.977132   0.000000
     17         11.692339   0.000000
     18         11.695260   0.000000
 
  0.2368421E+00  0.2368421E+00  0.2368421E+00  0.1250000E-01
      1         -9.372103   1.000000
      2         -9.372098   1.000000
      3         -1.159813   1.000000
      4         -1.159803   1.000000
      5          2.024324   1.000000
      6          2.024337   1.000000
      7          2.234479   1.000000
      8          2.236285   1.000000
      9          4.302834   0.000000
     10          4.302882   0.000000
     11          7.299151   0.000000
     12          7.299174   0.000000
     13          7.418084   0.000000
     14          7.420693   0.000000
     15          8.548367   0.000000
     16          8.548398   0.000000
     17         11.747784   0.000000
     18         11.757512   0.000000
 
  0.2105263E+00  0.2105263E+00  0.2105263E+00  0.1250000E-01
      1         -9.488450   1.000000
      2         -9.488446   1.000000
      3         -0.715335   1.000000
      4         -0.715329   1.000000
      5          2.116815   1.000000
      6          2.116828   1.000000
      7          2.328136   1.000000
      8          2.329984   1.000000
      9          4.374393   0.000000
     10          4.374434   0.000000
     11          7.207390   0.000000
     12          7.207409   0.000000
     13          7.329756   0.000000
     14          7.332396   0.000000
     15          8.129964   0.000000
     16          8.130000   0.000000
     17         11.717024   0.000000
     18         11.721666   0.000000
 
  0.1842105E+00  0.1842105E+00  0.1842105E+00  0.1250000E-01
      1         -9.593868   1.000000
      2         -9.593865   1.000000
      3         -0.257035   1.000000
      4         -0.257031   1.000000
      5          2.211623   1.000000
      6          2.211636   1.000000
      7          2.424211   1.000000
      8          2.426052   1.000000
      9          4.430008   0.000000
     10          4.430041   0.000000
     11          7.096755   0.000000
     12          7.096774   0.000000
     13          7.221028   0.000000
     14          7.223620   0.000000
     15          7.733295   0.000000
     16          7.733334   0.000000
     17         11.754698   0.000000
     18         11.758584   0.000000
 
  0.1578947E+00  0.1578947E+00  0.1578947E+00  0.1250000E-01
      1         -9.687152   1.000000
      2         -9.687150   1.000000
      3          0.211375   1.000000
      4          0.211376   1.000000
      5          2.306065   1.000000
      6          2.306079   1.000000
      7          2.519899   1.000000
      8          2.521678   1.000000
      9          4.455107   0.000000
     10          4.455131   0.000000
     11          6.973548   0.000000
     12          6.973566   0.000000
     13          7.098906   0.000000
     14          7.101369   0.000000
     15          7.372476   0.000000
     16          7.372517   0.000000
     17         11.671062   0.000000
     18         11.674063   0.000000
 
  0.1315789E+00  0.1315789E+00  0.1315789E+00  0.1250000E-01
      1         -9.767373   1.000000
      2         -9.767372   1.000000
      3          0.685777   1.000000
      4          0.685777   1.000000
      5          2.397124   1.000000
      6          2.397139   1.000000
      7          2.611907   1.000000
      8          2.613560   1.000000
      9          4.429465   0.000000
     10          4.429479   0.000000
     11          6.843874   0.000000
     12          6.843892   0.000000
     13          6.972381   0.000000
     14          6.974627   0.000000
     15          7.067220   0.000000
     16          7.067262   0.000000
     17         11.401373   0.000000
     18         11.401623   0.000000
 
  0.1052632E+00  0.1052632E+00  0.1052632E+00  0.1250000E-01
      1         -9.833824   1.000000
      2         -9.833823   1.000000
      3          1.161286   1.000000
      4          1.161288   1.000000
      5          2.481623   1.000000
      6          2.481639   1.000000
      7          2.696411   1.000000
      8          2.697866   1.000000
      9          4.330925   0.000000
     10          4.330930   0.000000
     11          6.708796   0.000000
     12          6.708808   0.000000
     13          6.843797   0.000000
     14          6.843831   0.000000
     15          6.851152   0.000000
     16          6.853097   0.000000
     17         11.095718   0.000000
     18         11.095940   0.000000
 
  0.7894737E-01  0.7894737E-01  0.7894737E-01  0.1250000E-01
      1         -9.885992   1.000000
      2         -9.885991   1.000000
      3          1.629698   1.000000
      4          1.629702   1.000000
      5          2.557009   1.000000
      6          2.557025   1.000000
      7          2.769062   1.000000
      8          2.770244   1.000000
      9          4.145477   0.000000
     10          4.145478   0.000000
     11          6.577888   0.000000
     12          6.577889   0.000000
     13          6.710886   0.000000
     14          6.710904   0.000000
     15          6.744759   0.000000
     16          6.746317   0.000000
     17         10.810952   0.000000
     18         10.811190   0.000000
 
  0.5263158E-01  0.5263158E-01  0.5263158E-01  0.1250000E-01
      1         -9.923515   1.000000
      2         -9.923515   1.000000
      3          2.074736   1.000000
      4          2.074741   1.000000
      5          2.625710   1.000000
      6          2.625726   1.000000
      7          2.825322   0.999988
      8          2.826159   0.999987
      9          3.879477   0.000000
     10          3.879481   0.000000
     11          6.481852   0.000000
     12          6.481853   0.000000
     13          6.637324   0.000000
     14          6.637336   0.000000
     15          6.661737   0.000000
     16          6.662829   0.000000
     17         10.583662   0.000000
     18         10.583911   0.000000
 
  0.2631579E-01  0.2631579E-01  0.2631579E-01  0.1250000E-01
      1         -9.946123   1.000000
      2         -9.946123   1.000000
      3          2.429306   1.000000
      4          2.429306   1.000000
      5          2.726376   1.000000
      6          2.726385   1.000000
      7          2.861086   0.999900
      8          2.861522   0.999898
      9          3.566980   0.000000
     10          3.566986   0.000000
     11          6.427014   0.000000
     12          6.427017   0.000000
     13          6.601319   0.000000
     14          6.601328   0.000000
     15          6.608944   0.000000
     16          6.609508   0.000000
     17         10.437522   0.000000
     18         10.437778   0.000000
 
  0.2775558E-16  0.2775558E-16  0.2775558E-16  0.1250000E-01
      1         -9.953661   1.000000
      2         -9.953661   1.000000
      3          2.537010   1.000000
      4          2.537020   1.000000
      5          2.873507   0.999803
      6          2.873516   0.999803
      7          2.873517   0.999803
      8          2.873526   0.999803
      9          3.358579   0.000457
     10          3.358584   0.000457
     11          6.409260   0.000000
     12          6.409264   0.000000
     13          6.591008   0.000000
     14          6.591016   0.000000
     15          6.591025   0.000000
     16          6.591031   0.000000
     17         10.387118   0.000000
     18         10.387375   0.000000
 
  0.0000000E+00  0.0000000E+00  0.0000000E+00  0.1250000E-01
      1         -9.953661   1.000000
      2         -9.953661   1.000000
      3          2.537010   1.000000
      4          2.537020   1.000000
      5          2.873507   0.999803
      6          2.873516   0.999803
      7          2.873517   0.999803
      8          2.873526   0.999803
      9          3.358579   0.000457
     10          3.358584   0.000457
     11          6.409260   0.000000
     12          6.409264   0.000000
     13          6.591008   0.000000
     14          6.591016   0.000000
     15          6.591025   0.000000
     16          6.591031   0.000000
     17         10.387117   0.000000
     18         10.387375   0.000000
 
  0.0000000E+00  0.2631579E-01  0.2631579E-01  0.1250000E-01
      1         -9.943606   1.000000
      2         -9.943606   1.000000
      3          2.404770   1.000000
      4          2.404780   1.000000
      5          2.697997   1.000000
      6          2.698002   1.000000
      7          2.833765   0.999980
      8          2.833774   0.999980
      9          3.629154   0.000000
     10          3.629162   0.000000
     11          6.420318   0.000000
     12          6.420331   0.000000
     13          6.592063   0.000000
     14          6.592070   0.000000
     15          6.639687   0.000000
     16          6.639700   0.000000
     17         10.454024   0.000000
     18         10.454277   0.000000
 
  0.0000000E+00  0.5263158E-01  0.5263158E-01  0.1250000E-01
      1         -9.913444   1.000000
      2         -9.913443   1.000000
      3          2.027021   1.000000
      4          2.027032   1.000000
      5          2.537680   1.000000
      6          2.537687   1.000000
      7          2.721645   1.000000
      8          2.721652   1.000000
      9          4.059170   0.000000
     10          4.059180   0.000000
     11          6.354154   0.000000
     12          6.354187   0.000000
     13          6.696630   0.000000
     14          6.696639   0.000000
     15          6.780276   0.000000
     16          6.780288   0.000000
     17         10.644890   0.000000
     18         10.645136   0.000000
 
  0.0000000E+00  0.7894737E-01  0.7894737E-01  0.1250000E-01
      1         -9.863328   1.000000
      2         -9.863328   1.000000
      3          1.580985   1.000000
      4          1.580996   1.000000
      5          2.373210   1.000000
      6          2.373215   1.000000
      7          2.554225   1.000000
      8          2.554231   1.000000
      9          4.497535   0.000000
     10          4.497546   0.000000
     11          6.200188   0.000000
     12          6.200234   0.000000
     13          6.920572   0.000000
     14          6.920581   0.000000
     15          6.999103   0.000000
     16          6.999113   0.000000
     17         10.930965   0.000000
     18         10.931201   0.000000
 
  0.0000000E+00  0.1052632E+00  0.1052632E+00  0.1250000E-01
      1         -9.793554   1.000000
      2         -9.793553   1.000000
      3          1.123512   1.000000
      4          1.123523   1.000000
      5          2.181805   1.000000
      6          2.181809   1.000000
      7          2.350676   1.000000
      8          2.350680   1.000000
      9          4.910128   0.000000
     10          4.910140   0.000000
     11          6.016355   0.000000
     12          6.016410   0.000000
     13          7.215873   0.000000
     14          7.215881   0.000000
     15          7.279973   0.000000
     16          7.279981   0.000000
     17         11.089030   0.000000
     18         11.092348   0.000000
 
  0.0000000E+00  0.1315789E+00  0.1315789E+00  0.1250000E-01
      1         -9.704472   1.000000
      2         -9.704470   1.000000
      3          0.665569   1.000000
      4          0.665580   1.000000
      5          1.971562   1.000000
      6          1.971565   1.000000
      7          2.127005   1.000000
      8          2.127007   1.000000
      9          5.244609   0.000000
     10          5.244612   0.000000
     11          5.859010   0.000000
     12          5.859064   0.000000
     13          7.559683   0.000000
     14          7.559689   0.000000
     15          7.607894   0.000000
     16          7.607900   0.000000
     17         10.697890   0.000000
     18         10.698085   0.000000
 
  0.0000000E+00  0.1578947E+00  0.1578947E+00  0.1250000E-01
      1         -9.596608   1.000000
      2         -9.596605   1.000000
      3          0.211353   1.000000
      4          0.211364   1.000000
      5          1.752666   1.000000
      6          1.752667   1.000000
      7          1.895541   1.000000
      8          1.895543   1.000000
      9          5.344911   0.000000
     10          5.344953   0.000000
     11          5.873571   0.000000
     12          5.873589   0.000000
     13          7.937930   0.000000
     14          7.937935   0.000000
     15          7.971187   0.000000
     16          7.971192   0.000000
     17         10.341783   0.000000
     18         10.341977   0.000000
 
  0.0000000E+00  0.1842105E+00  0.1842105E+00  0.1250000E-01
      1         -9.470679   1.000000
      2         -9.470675   1.000000
      3         -0.237315   1.000000
      4         -0.237305   1.000000
      5          1.533032   1.000000
      6          1.533034   1.000000
      7          1.664825   1.000000
      8          1.664828   1.000000
      9          5.212127   0.000000
     10          5.212196   0.000000
     11          6.035666   0.000000
     12          6.035670   0.000000
     13          8.340363   0.000000
     14          8.340367   0.000000
     15          8.361238   0.000000
     16          8.361243   0.000000
     17         10.107639   0.000000
     18         10.107834   0.000000
 
  0.0000000E+00  0.2105263E+00  0.2105263E+00  0.1250000E-01
      1         -9.327598   1.000000
      2         -9.327593   1.000000
      3         -0.679029   1.000000
      4         -0.679018   1.000000
      5          1.318505   1.000000
      6          1.318508   1.000000
      7          1.440794   1.000000
      8          1.440798   1.000000
      9          5.031182   0.000000
     10          5.031261   0.000000
     11          6.135572   0.000000
     12          6.135581   0.000000
     13          8.757780   0.000000
     14          8.757783   0.000000
     15          8.773452   0.000000
     16          8.773455   0.000000
     17         10.033311   0.000000
     18         10.033501   0.000000
 
  0.0000000E+00  0.2368421E+00  0.2368421E+00  0.1250000E-01
      1         -9.168584   1.000000
      2         -9.168577   1.000000
      3         -1.112278   1.000000
      4         -1.112268   1.000000
      5          1.113805   1.000000
      6          1.113809   1.000000
      7          1.227993   1.000000
      8          1.227998   1.000000
      9          4.852571   0.000000
     10          4.852656   0.000000
     11          6.117539   0.000000
     12          6.117563   0.000000
     13          9.182782   0.000000
     14          9.182786   0.000000
     15          9.205049   0.000000
     16          9.205052   0.000000
     17         10.130540   0.000000
     18         10.130720   0.000000
 
  0.0000000E+00  0.2631579E+00  0.2631579E+00  0.1250000E-01
      1         -8.995273   1.000000
      2         -8.995265   1.000000
      3         -1.534984   1.000000
      4         -1.534976   1.000000
      5          0.922143   1.000000
      6          0.922149   1.000000
      7          1.029484   1.000000
      8          1.029490   1.000000
      9          4.688687   0.000000
     10          4.688776   0.000000
     11          5.995215   0.000000
     12          5.995258   0.000000
     13          9.614967   0.000000
     14          9.614969   0.000000
     15          9.649005   0.000000
     16          9.649007   0.000000
     17         10.376483   0.000000
     18         10.376649   0.000000
 
  0.0000000E+00  0.2894737E+00  0.2894737E+00  0.1250000E-01
      1         -8.809821   1.000000
      2         -8.809811   1.000000
      3         -1.944928   1.000000
      4         -1.944921   1.000000
      5          0.745970   1.000000
      6          0.745976   1.000000
      7          0.847561   1.000000
      8          0.847568   1.000000
      9          4.544567   0.000000
     10          4.544659   0.000000
     11          5.805189   0.000000
     12          5.805249   0.000000
     13         10.053818   0.000000
     14         10.053821   0.000000
     15         10.100164   0.000000
     16         10.100167   0.000000
     17         10.729504   0.000000
     18         10.729658   0.000000
 
  0.0000000E+00  0.3157895E+00  0.3157895E+00  0.1250000E-01
      1         -8.615128   1.000000
      2         -8.615116   1.000000
      3         -2.338925   1.000000
      4         -2.338920   1.000000
      5          0.587183   1.000000
      6          0.587190   1.000000
      7          0.683984   1.000000
      8          0.683992   1.000000
      9          4.422965   0.000000
     10          4.423059   0.000000
     11          5.582542   0.000000
     12          5.582617   0.000000
     13         10.497695   0.000000
     14         10.497699   0.000000
     15         10.555122   0.000000
     16         10.555125   0.000000
     17         11.150343   0.000000
     18         11.150476   0.000000
 
  0.0000000E+00  0.3421053E+00  0.3421053E+00  0.1250000E-01
      1         -8.415261   1.000000
      2         -8.415247   1.000000
      3         -2.712654   1.000000
      4         -2.712651   1.000000
      5          0.447129   1.000000
      6          0.447136   1.000000
      7          0.539967   1.000000
      8          0.539976   1.000000
      9          4.325548   0.000000
     10          4.325644   0.000000
     11          5.352136   0.000000
     12          5.352223   0.000000
     13         10.943377   0.000000
     14         10.943379   0.000000
     15         11.009981   0.000000
     16         11.009983   0.000000
     17         11.609153   0.000000
     18         11.609294   0.000000
 
  0.0000000E+00  0.3684211E+00  0.3684211E+00  0.1250000E-01
      1         -8.215745   1.000000
      2         -8.215728   1.000000
      3         -3.060157   1.000000
      4         -3.060156   1.000000
      5          0.327071   1.000000
      6          0.327079   1.000000
      7          0.416705   1.000000
      8          0.416714   1.000000
      9          4.253610   0.000000
     10          4.253706   0.000000
     11          5.129931   0.000000
     12          5.130027   0.000000
     13         11.386317   0.000000
     14         11.386319   0.000000
     15         11.459909   0.000000
     16         11.459911   0.000000
     17         12.084489   0.000000
     18         12.084629   0.000000
 
  0.0000000E+00  0.3947368E+00  0.3947368E+00  0.1250000E-01
      1         -8.024338   1.000000
      2         -8.024318   1.000000
      3         -3.373305   1.000000
      4         -3.373303   1.000000
      5          0.227961   1.000000
      6          0.227969   1.000000
      7          0.315073   1.000000
      8          0.315083   1.000000
      9          4.207726   0.000000
     10          4.207821   0.000000
     11          4.925905   0.000000
     12          4.926009   0.000000
     13         11.818639   0.000000
     14         11.818640   0.000000
     15         11.896564   0.000000
     16         11.896566   0.000000
     17         12.557511   0.000000
     18         12.557653   0.000000
 
  0.0000000E+00  0.4210526E+00  0.4210526E+00  0.1250000E-01
      1         -7.851600   1.000000
      2         -7.851577   1.000000
      3         -3.641218   1.000000
      4         -3.641212   1.000000
      5          0.150128   1.000000
      6          0.150137   1.000000
      7          0.235326   1.000000
      8          0.235336   1.000000
      9          4.187824   0.000000
     10          4.187917   0.000000
     11          4.746500   0.000000
     12          4.746611   0.000000
     13         12.225966   0.000000
     14         12.225968   0.000000
     15         12.304681   0.000000
     16         12.304684   0.000000
     17         13.007260   0.000000
     18         13.007404   0.000000
 
  0.0000000E+00  0.4473684E+00  0.4473684E+00  0.1250000E-01
      1         -7.711030   1.000000
      2         -7.711004   1.000000
      3         -3.850035   1.000000
      4         -3.850027   1.000000
      5          0.094213   1.000000
      6          0.094222   1.000000
      7          0.178071   1.000000
      8          0.178081   1.000000
      9          4.192331   0.000000
     10          4.192419   0.000000
     11          4.597347   0.000000
     12          4.597466   0.000000
     13         12.582729   0.000000
     14         12.582733   0.000000
     15         12.657116   0.000000
     16         12.657121   0.000000
     17         13.402861   0.000000
     18         13.403007   0.000000
 
  0.0000000E+00  0.4736842E+00  0.4736842E+00  0.1250000E-01
      1         -7.617834   1.000000
      2         -7.617807   1.000000
      3         -3.984263   1.000000
      4         -3.984253   1.000000
      5          0.060549   1.000000
      6          0.060559   1.000000
      7          0.143620   1.000000
      8          0.143630   1.000000
      9          4.214569   0.000000
     10          4.214648   0.000000
     11          4.487527   0.000000
     12          4.487656   0.000000
     13         12.843158   0.000000
     14         12.843195   0.000000
     15         12.907722   0.000000
     16         12.907762   0.000000
     17         13.692559   0.000000
     18         13.692706   0.000000
 
  0.0000000E+00  0.5000000E+00  0.5000000E+00  0.1250000E-01
      1         -7.585039   1.000000
      2         -7.585011   1.000000
      3         -4.030861   1.000000
      4         -4.030851   1.000000
      5          0.049161   1.000000
      6          0.049170   1.000000
      7          0.131969   1.000000
      8          0.131979   1.000000
      9          4.230785   0.000000
     10          4.230856   0.000000
     11          4.441817   0.000000
     12          4.441955   0.000000
     13         12.942427   0.000000
     14         12.942435   0.000000
     15         13.000126   0.000000
     16         13.000134   0.000000
     17         13.802797   0.000000
     18         13.802964   0.000000
 
  0.0000000E+00  0.5000000E+00  0.5000000E+00  0.1250000E-01
      1         -7.585039   1.000000
      2         -7.585011   1.000000
      3         -4.030861   1.000000
      4         -4.030851   1.000000
      5          0.049161   1.000000
      6          0.049170   1.000000
      7          0.131969   1.000000
      8          0.131979   1.000000
      9          4.230785   0.000000
     10          4.230856   0.000000
     11          4.441817   0.000000
     12          4.441955   0.000000
     13         12.942428   0.000000
     14         12.942435   0.000000
     15         13.000126   0.000000