    5    5    1    1
  0.4185344E+02  0.5937000E-09  0.5937000E-09  0.5937000E-09  0.5000000E-15
  1.000000000000000E-004
  CAR 
 unknown system                          
     44    343    102
 
  0.0000000E+00  0.0000000E+00  0.0000000E+00  0.2915452E-02
      1        -20.389180   1.000000
      2        -20.389150   1.000000
      3        -17.097980   1.000000
      4        -17.097976   1.000000
      5        -17.097973   1.000000
      6        -17.097972   1.000000
      7        -14.651021   1.000000
      8        -14.651020   1.000000
      9        -14.651013   1.000000
     10        -14.651013   1.000000
     11        -14.500532   1.000000
     12        -14.500525   1.000000
     13        -13.583335   1.000000
     14        -13.583330   1.000000
     15        -12.901723   1.000000
     16        -12.901722   1.000000
     17        -12.901711   1.000000
     18        -12.901709   1.000000
     19         -8.234779   1.000000
     20         -8.234762   1.000000
     21         -6.685026   1.000000
     22         -6.685025   1.000000
     23         -6.685011   1.000000
     24         -6.685006   1.000000
     25         -5.848468   1.000000
     26         -5.848416   1.000000
     27         -3.266794   1.000000
     28         -3.266775   1.000000
     29         -3.033846   1.000000
     30         -3.033824   1.000000
     31         -3.033811   1.000000
     32         -3.033788   1.000000
     33         -1.209526   1.000000
     34         -1.209523   1.000000
     35         -1.056503   1.000000
     36         -1.056487   1.000000
     37         -1.056483   1.000000
     38         -1.056467   1.000000
     39         -0.836302   1.000000
     40         -0.836298   1.000000
     41         -0.718870   1.000000
     42         -0.718857   1.000000
     43         -0.718852   1.000000
     44         -0.718839   1.000000
     45          4.111427   0.000000
     46          4.111481   0.000000
     47          5.256814   0.000000
     48          5.256919   0.000000
     49          5.256945   0.000000
     50          5.257050   0.000000
     51          5.759214   0.000000
     52          5.759223   0.000000
     53          5.995457   0.000000
     54          5.995510   0.000000
     55          5.995531   0.000000
     56          5.995582   0.000000
     57          6.046806   0.000000
     58          6.046831   0.000000
     59          7.403496   0.000000
     60          7.403516   0.000000
     61          7.403545   0.000000
     62          7.403567   0.000000
     63          8.716509   0.000000
     64          8.716559   0.000000
     65          8.716584   0.000000
     66          8.716635   0.000000
     67          8.806538   0.000000
     68          8.806568   0.000000
     69         10.402005   0.000000
     70         10.402082   0.000000
     71         10.948307   0.000000
     72         10.948347   0.000000
     73         10.948416   0.000000
     74         10.948454   0.000000
     75         10.989744   0.000000
     76         10.989756   0.000000
     77         10.989805   0.000000
     78         10.989817   0.000000
     79         11.879369   0.000000
     80         11.879518   0.000000
     81         12.928210   0.000000
     82         12.928211   0.000000
     83         12.928329   0.000000
     84         12.928329   0.000000
     85         13.418723   0.000000
     86         13.418739   0.000000
     87         13.418750   0.000000
     88         13.418767   0.000000
     89         13.520183   0.000000
     90         13.520196   0.000000
     91         13.760890   0.000000
     92         13.760906   0.000000
     93         13.760943   0.000000
     94         13.761042   0.000000
     95         13.803887   0.000000
     96         13.804016   0.000000
     97         13.808663   0.000000
     98         13.808841   0.000000
     99         14.092745   0.000000
    100         14.094524   0.000000
    101         14.294645   0.000000
    102         14.294669   0.000000
 
  0.1428571E+00  0.0000000E+00  0.0000000E+00  0.2915452E-02
      1        -20.388958   1.000000
      2        -20.388927   1.000000
      3        -17.097938   1.000000
      4        -17.097933   1.000000
      5        -17.095917   1.000000
      6        -17.095912   1.000000
      7        -14.650870   1.000000
      8        -14.650863   1.000000
      9        -14.638881   1.000000
     10        -14.638874   1.000000
     11        -14.500293   1.000000
     12        -14.500286   1.000000
     13        -13.562753   1.000000
     14        -13.562747   1.000000
     15        -12.944512   1.000000
     16        -12.944501   1.000000
     17        -12.901372   1.000000
     18        -12.901359   1.000000
     19         -8.233532   1.000000
     20         -8.233515   1.000000
     21         -6.683040   1.000000
     22         -6.683025   1.000000
     23         -6.682488   1.000000
     24         -6.682473   1.000000
     25         -6.023657   1.000000
     26         -6.023601   1.000000
     27         -3.194797   1.000000
     28         -3.194763   1.000000
     29         -3.021159   1.000000
     30         -3.021127   1.000000
     31         -2.734450   1.000000
     32         -2.734402   1.000000
     33         -1.228139   1.000000
     34         -1.228137   1.000000
     35         -1.077714   1.000000
     36         -1.077695   1.000000
     37         -1.071209   1.000000
     38         -1.071190   1.000000
     39         -0.859601   1.000000
     40         -0.859596   1.000000
     41         -0.744621   1.000000
     42         -0.744605   1.000000
     43         -0.736830   1.000000
     44         -0.736815   1.000000
     45          4.304497   0.000000
     46          4.304551   0.000000
     47          5.362485   0.000000
     48          5.362598   0.000000
     49          5.406235   0.000000
     50          5.406357   0.000000
     51          5.466486   0.000000
     52          5.466503   0.000000
     53          6.069735   0.000000
     54          6.069840   0.000000
     55          6.150503   0.000000
     56          6.150552   0.000000
     57          6.167496   0.000000
     58          6.167556   0.000000
     59          7.001286   0.000000
     60          7.001334   0.000000
     61          7.347257   0.000000
     62          7.347302   0.000000
     63          8.485083   0.000000
     64          8.485209   0.000000
     65          8.806531   0.000000
     66          8.806597   0.000000
     67          8.885527   0.000000
     68          8.885591   0.000000
     69          9.954752   0.000000
     70          9.954861   0.000000
     71         10.507168   0.000000
     72         10.507250   0.000000
     73         10.740534   0.000000
     74         10.740575   0.000000
     75         10.791045   0.000000
     76         10.791130   0.000000
     77         10.989389   0.000000
     78         10.989447   0.000000
     79         12.220217   0.000000
     80         12.220347   0.000000
     81         12.476104   0.000000
     82         12.476133   0.000000
     83         12.979991   0.000000
     84         12.980017   0.000000
     85         13.053969   0.000000
     86         13.054021   0.000000
     87         13.096921   0.000000
     88         13.096939   0.000000
     89         13.265999   0.000000
     90         13.266166   0.000000
     91         13.855874   0.000000
     92         13.855922   0.000000
     93         13.905634   0.000000
     94         13.905669   0.000000
     95         13.984157   0.000000
     96         13.984222   0.000000
     97         14.022222   0.000000
     98         14.022322   0.000000
     99         14.249093   0.000000
    100         14.253392   0.000000
    101         14.362220   0.000000
    102         14.379525   0.000000
 
  0.2857143E+00  0.0000000E+00  0.0000000E+00  0.2915452E-02
      1        -20.388606   1.000000
      2        -20.388575   1.000000
      3        -17.097967   1.000000
      4        -17.097962   1.000000
      5        -17.091583   1.000000
      6        -17.091577   1.000000
      7        -14.650830   1.000000
      8        -14.650823   1.000000
      9        -14.612089   1.000000
     10        -14.612082   1.000000
     11        -14.500662   1.000000
     12        -14.500655   1.000000
     13        -13.499365   1.000000
     14        -13.499361   1.000000
     15        -13.058787   1.000000
     16        -13.058778   1.000000
     17        -12.900781   1.000000
     18        -12.900769   1.000000
     19         -8.230963   1.000000
     20         -8.230946   1.000000
     21         -6.678633   1.000000
     22         -6.678617   1.000000
     23         -6.676797   1.000000
     24         -6.676782   1.000000
     25         -6.326398   1.000000
     26         -6.326337   1.000000
     27         -3.134030   1.000000
     28         -3.133991   1.000000
     29         -2.991945   1.000000
     30         -2.991913   1.000000
     31         -2.055714   1.000000
     32         -2.055690   1.000000
     33         -1.272669   1.000000
     34         -1.272663   1.000000
     35         -1.101373   1.000000
     36         -1.101348   1.000000
     37         -1.085402   1.000000
     38         -1.085380   1.000000
     39         -0.915799   1.000000
     40         -0.915792   1.000000
     41         -0.799903   1.000000
     42         -0.799887   1.000000
     43         -0.708564   1.000000
     44         -0.708548   1.000000
     45          4.502694   0.000000
     46          4.502775   0.000000
     47          4.872745   0.000000
     48          4.872798   0.000000
     49          5.696738   0.000000
     50          5.696872   0.000000
     51          5.784213   0.000000
     52          5.784332   0.000000
     53          6.233813   0.000000
     54          6.233850   0.000000
     55          6.255402   0.000000
     56          6.255516   0.000000
     57          6.395757   0.000000
     58          6.395813   0.000000
     59          6.830726   0.000000
     60          6.830772   0.000000
     61          7.346099   0.000000
     62          7.346145   0.000000
     63          7.971063   0.000000
     64          7.971199   0.000000
     65          8.729055   0.000000
     66          8.729120   0.000000
     67          8.874978   0.000000
     68          8.875043   0.000000
     69          8.888028   0.000000
     70          8.888120   0.000000
     71         10.023774   0.000000
     72         10.023838   0.000000
     73         10.361605   0.000000
     74         10.361681   0.000000
     75         10.660300   0.000000
     76         10.660374   0.000000
     77         10.778346   0.000000
     78         10.778390   0.000000
     79         11.688190   0.000000
     80         11.688266   0.000000
     81         12.385356   0.000000
     82         12.385386   0.000000
     83         12.555868   0.000000
     84         12.555903   0.000000
     85         12.772473   0.000000
     86         12.772603   0.000000
     87         12.837314   0.000000
     88         12.837369   0.000000
     89         13.530327   0.000000
     90         13.530520   0.000000
     91         13.915500   0.000000
     92         13.915561   0.000000
     93         14.052159   0.000000
     94         14.052242   0.000000
     95         14.174753   0.000000
     96         14.174835   0.000000
     97         14.268215   0.000000
     98         14.268250   0.000000
     99         14.269644   0.000000
    100         14.269677   0.000000
    101         14.336849   0.000000
    102         14.336872   0.000000
 
  0.4285714E+00  0.0000000E+00  0.0000000E+00  0.2915452E-02
      1        -20.388260   1.000000
      2        -20.388229   1.000000
      3        -17.097939   1.000000
      4        -17.097934   1.000000
      5        -17.087988   1.000000
      6        -17.087983   1.000000
      7        -14.650627   1.000000
      8        -14.650621   1.000000
      9        -14.589576   1.000000
     10        -14.589569   1.000000
     11        -14.500653   1.000000
     12        -14.500646   1.000000
     13        -13.400335   1.000000
     14        -13.400331   1.000000
     15        -13.199251   1.000000
     16        -13.199242   1.000000
     17        -12.900192   1.000000
     18        -12.900179   1.000000
     19         -8.228859   1.000000
     20         -8.228842   1.000000
     21         -6.675064   1.000000
     22         -6.675048   1.000000
     23         -6.672196   1.000000
     24         -6.672181   1.000000
     25         -6.516888   1.000000
     26         -6.516823   1.000000
     27         -3.093242   1.000000
     28         -3.093202   1.000000
     29         -2.967709   1.000000
     30         -2.967677   1.000000
     31         -1.693804   1.000000
     32         -1.693799   1.000000
     33         -1.316721   1.000000
     34         -1.316712   1.000000
     35         -1.121185   1.000000
     36         -1.121154   1.000000
     37         -1.042237   1.000000
     38         -1.042215   1.000000
     39         -0.966689   1.000000
     40         -0.966678   1.000000
     41         -0.841286   1.000000
     42         -0.841270   1.000000
     43         -0.405796   1.000000
     44         -0.405772   1.000000
     45          3.566295   0.000000
     46          3.566426   0.000000
     47          5.396220   0.000000
     48          5.396319   0.000000
     49          6.052295   0.000000
     50          6.052469   0.000000
     51          6.109438   0.000000
     52          6.109489   0.000000
     53          6.151923   0.000000
     54          6.152040   0.000000
     55          6.478393   0.000000
     56          6.478498   0.000000
     57          6.549780   0.000000
     58          6.549826   0.000000
     59          7.306827   0.000000
     60          7.306878   0.000000
     61          7.536062   0.000000
     62          7.536209   0.000000
     63          7.623236   0.000000
     64          7.623282   0.000000
     65          7.878741   0.000000
     66          7.878880   0.000000
     67          8.320604   0.000000
     68          8.320674   0.000000
     69          8.468664   0.000000
     70          8.468730   0.000000
     71          9.418721   0.000000
     72          9.418795   0.000000
     73         10.220180   0.000000
     74         10.220225   0.000000
     75         10.717962   0.000000
     76         10.718033   0.000000
     77         10.886143   0.000000
     78         10.886210   0.000000
     79         11.578307   0.000000
     80         11.578443   0.000000
     81         11.795138   0.000000
     82         11.795169   0.000000
     83         12.102414   0.000000
     84         12.102450   0.000000
     85         12.555887   0.000000
     86         12.556083   0.000000
     87         13.113449   0.000000
     88         13.113469   0.000000
     89         13.782572   0.000000
     90         13.782771   0.000000
     91         13.825741   0.000000
     92         13.825849   0.000000
     93         13.970186   0.000000
     94         13.970280   0.000000
     95         14.000943   0.000000
     96         14.001058   0.000000
     97         14.532055   0.000000
     98         14.532094   0.000000
     99         14.643896   0.000000
    100         14.643982   0.000000
    101         15.300753   0.000000
    102         15.341119   0.000000
 
 -0.4285714E+00  0.0000000E+00  0.0000000E+00  0.2915452E-02
      1        -20.388260   1.000000
      2        -20.388229   1.000000
      3        -17.097939   1.000000
      4        -17.097934   1.000000
      5        -17.087988   1.000000
      6        -17.087983   1.000000
      7        -14.650627   1.000000
      8        -14.650621   1.000000
      9        -14.589576   1.000000
     10        -14.589569   1.000000
     11        -14.500653   1.000000
     12        -14.500646   1.000000
     13        -13.400335   1.000000
     14        -13.400331   1.000000
     15        -13.199251   1.000000
     16        -13.199242   1.000000
     17        -12.900192   1.000000
     18        -12.900179   1.000000
     19         -8.228859   1.000000
     20         -8.228842   1.000000
     21         -6.675064   1.000000
     22         -6.675048   1.000000
     23         -6.672196   1.000000
     24         -6.672181   1.000000
     25         -6.516888   1.000000
     26         -6.516823   1.000000
     27         -3.093242   1.000000
     28         -3.093202   1.000000
     29         -2.967709   1.000000
     30         -2.967677   1.000000
     31         -1.693804   1.000000
     32         -1.693799   1.000000
     33         -1.316721   1.000000
     34         -1.316712   1.000000
     35         -1.121185   1.000000
     36         -1.121154   1.000000
     37         -1.042237   1.000000
     38         -1.042215   1.000000
     39         -0.966689   1.000000
     40         -0.966678   1.000000
     41         -0.841286   1.000000
     42         -0.841270   1.000000
     43         -0.405796   1.000000
     44         -0.405772   1.000000
     45          3.566295   0.000000
     46          3.566426   0.000000
     47          5.396220   0.000000
     48          5.396319   0.000000
     49          6.052295   0.000000
     50          6.052469   0.000000
     51          6.109437   0.000000
     52          6.109489   0.000000
     53          6.151923   0.000000
     54          6.152040   0.000000
     55          6.478393   0.000000
     56          6.478498   0.000000
     57          6.549780   0.000000
     58          6.549826   0.000000
     59          7.306827   0.000000
     60          7.306879   0.000000
     61          7.536062   0.000000
     62          7.536209   0.000000
     63          7.623236   0.000000
     64          7.623282   0.000000
     65          7.878741   0.000000
     66          7.878880   0.000000
     67          8.320604   0.000000
     68          8.320673   0.000000
     69          8.468664   0.000000
     70          8.468730   0.000000
     71          9.418721   0.000000
     72          9.418795   0.000000
     73         10.220180   0.000000
     74         10.220225   0.000000
     75         10.717962   0.000000
     76         10.718033   0.000000
     77         10.886143   0.000000
     78         10.886210   0.000000
     79         11.578307   0.000000
     80         11.578443   0.000000
     81         11.795138   0.000000
     82         11.795169   0.000000
     83         12.102414   0.000000
     84         12.102450   0.000000
     85         12.555887   0.000000
     86         12.556082   0.000000
     87         13.113449   0.000000
     88         13.113469   0.000000
     89         13.782572   0.000000
     90         13.782771   0.000000
     91         13.825741   0.000000
     92         13.825850   0.000000
     93         13.970186   0.000000
     94         13.970279   0.000000
     95         14.000943   0.000000
     96         14.001058   0.000000
     97         14.532054   0.000000
     98         14.532101   0.000000
     99         14.643924   0.000000
    100         14.644048   0.000000
    101         15.301362   0.000000
    102         15.332155   0.000000
 
 -0.2857143E+00  0.0000000E+00  0.0000000E+00  0.2915452E-02
      1        -20.388606   1.000000
      2        -20.388575   1.000000
      3        -17.097967   1.000000
      4        -17.097962   1.000000
      5        -17.091583   1.000000
      6        -17.091577   1.000000
      7        -14.650830   1.000000
      8        -14.650823   1.000000
      9        -14.612089   1.000000
     10        -14.612082   1.000000
     11        -14.500662   1.000000
     12        -14.500655   1.000000
     13        -13.499365   1.000000
     14        -13.499361   1.000000
     15        -13.058787   1.000000
     16        -13.058778   1.000000
     17        -12.900781   1.000000
     18        -12.900769   1.000000
     19         -8.230963   1.000000
     20         -8.230946   1.000000
     21         -6.678633   1.000000
     22         -6.678617   1.000000
     23         -6.676797   1.000000
     24         -6.676782   1.000000
     25         -6.326398   1.000000
     26         -6.326337   1.000000
     27         -3.134030   1.000000
     28         -3.133991   1.000000
     29         -2.991945   1.000000
     30         -2.991913   1.000000
     31         -2.055714   1.000000
     32         -2.055690   1.000000
     33         -1.272669   1.000000
     34         -1.272663   1.000000
     35         -1.101373   1.000000
     36         -1.101348   1.000000
     37         -1.085402   1.000000
     38         -1.085380   1.000000
     39         -0.915798   1.000000
     40         -0.915792   1.000000
     41         -0.799903   1.000000
     42         -0.799887   1.000000
     43         -0.708564   1.000000
     44         -0.708548   1.000000
     45          4.502694   0.000000
     46          4.502775   0.000000
     47          4.872745   0.000000
     48          4.872798   0.000000
     49          5.696738   0.000000
     50          5.696872   0.000000
     51          5.784213   0.000000
     52          5.784332   0.000000
     53          6.233813   0.000000
     54          6.233850   0.000000
     55          6.255402   0.000000
     56          6.255516   0.000000
     57          6.395757   0.000000
     58          6.395813   0.000000
     59          6.830726   0.000000
     60          6.830772   0.000000
     61          7.346099   0.000000
     62          7.346145   0.000000
     63          7.971063   0.000000
     64          7.971199   0.000000
     65          8.729055   0.000000
     66          8.729120   0.000000
     67          8.874978   0.000000
     68          8.875043   0.000000
     69          8.888027   0.000000
     70          8.888120   0.000000
     71         10.023774   0.000000
     72         10.023838   0.000000
     73         10.361605   0.000000
     74         10.361681   0.000000
     75         10.660300   0.000000
     76         10.660374   0.000000
     77         10.778346   0.000000
     78         10.778390   0.000000
     79         11.688190   0.000000
     80         11.688266   0.000000
     81         12.385356   0.000000
     82         12.385386   0.000000
     83         12.555869   0.000000
     84         12.555903   0.000000
     85         12.772473   0.000000
     86         12.772603   0.000000
     87         12.837314   0.000000
     88         12.837369   0.000000
     89         13.530327   0.000000
     90         13.530520   0.000000
     91         13.915501   0.000000
     92         13.915561   0.000000
     93         14.052158   0.000000
     94         14.052241   0.000000
     95         14.174752   0.000000
     96         14.174835   0.000000
     97         14.268215   0.000000
     98         14.268250   0.000000
     99         14.269644   0.000000
    100         14.269676   0.000000
    101         14.336844   0.000000
    102         14.336874   0.000000
 
 -0.1428571E+00  0.0000000E+00  0.0000000E+00  0.2915452E-02
      1        -20.388958   1.000000
      2        -20.388927   1.000000
      3        -17.097938   1.000000
      4        -17.097933   1.000000
      5        -17.095917   1.000000
      6        -17.095912   1.000000
      7        -14.650870   1.000000
      8        -14.650863   1.000000
      9        -14.638881   1.000000
     10        -14.638874   1.000000
     11        -14.500293   1.000000
     12        -14.500286   1.000000
     13        -13.562753   1.000000
     14        -13.562747   1.000000
     15        -12.944512   1.000000
     16        -12.944501   1.000000
     17        -12.901372   1.000000
     18        -12.901359   1.000000
     19         -8.233532   1.000000
     20         -8.233515   1.000000
     21         -6.683040   1.000000
     22         -6.683025   1.000000
     23         -6.682488   1.000000
     24         -6.682473   1.000000
     25         -6.023657   1.000000
     26         -6.023601   1.000000
     27         -3.194797   1.000000
     28         -3.194763   1.000000
     29         -3.021159   1.000000
     30         -3.021127   1.000000
     31         -2.734450   1.000000
     32         -2.734402   1.000000
     33         -1.228139   1.000000
     34         -1.228137   1.000000
     35         -1.077714   1.000000
     36         -1.077695   1.000000
     37         -1.071209   1.000000
     38         -1.071190   1.000000
     39         -0.859601   1.000000
     40         -0.859596   1.000000
     41         -0.744621   1.000000
     42         -0.744605   1.000000
     43         -0.736830   1.000000
     44         -0.736815   1.000000
     45          4.304497   0.000000
     46          4.304551   0.000000
     47          5.362485   0.000000
     48          5.362598   0.000000
     49          5.406235   0.000000
     50          5.406357   0.000000
     51          5.466486   0.000000
     52          5.466503   0.000000
     53          6.069735   0.000000
     54          6.069840   0.000000
     55          6.150503   0.000000
     56          6.150552   0.000000
     57          6.167496   0.000000
     58          6.167556   0.000000
     59          7.001286   0.000000
     60          7.001334   0.000000
     61          7.347257   0.000000
     62          7.347302   0.000000
     63          8.485083   0.000000
     64          8.485209   0.000000
     65          8.806531   0.000000
     66          8.806597   0.000000
     67          8.885527   0.000000
     68          8.885591   0.000000
     69          9.954752   0.000000
     70          9.954861   0.000000
     71         10.507168   0.000000
     72         10.507250   0.000000
     73         10.740534   0.000000
     74         10.740575   0.000000
     75         10.791045   0.000000
     76         10.791130   0.000000
     77         10.989389   0.000000
     78         10.989447   0.000000
     79         12.220217   0.000000
     80         12.220347   0.000000
     81         12.476104   0.000000
     82         12.476133   0.000000
     83         12.979991   0.000000
     84         12.980017   0.000000
     85         13.053968   0.000000
     86         13.054021   0.000000
     87         13.096921   0.000000
     88         13.096940   0.000000
     89         13.265999   0.000000
     90         13.266166   0.000000
     91         13.855873   0.000000
     92         13.855917   0.000000
     93         13.905627   0.000000
     94         13.905655   0.000000
     95         13.984164   0.000000
     96         13.984220   0.000000
     97         14.022218   0.000000
     98         14.022536   0.000000
     99         14.249101   0.000000
    100         14.261829   0.000000
    101         14.362372   0.000000
    102         14.417174   0.000000
 
  0.0000000E+00  0.1428571E+00  0.0000000E+00  0.2915452E-02
      1        -20.388958   1.000000
      2        -20.388927   1.000000
      3        -17.097938   1.000000
      4        -17.097933   1.000000
      5        -17.095918   1.000000
      6        -17.095912   1.000000
      7        -14.650870   1.000000
      8        -14.650863   1.000000
      9        -14.638881   1.000000
     10        -14.638874   1.000000
     11        -14.500293   1.000000
     12        -14.500286   1.000000
     13        -13.562753   1.000000
     14        -13.562747   1.000000
     15        -12.944512   1.000000
     16        -12.944500   1.000000
     17        -12.901372   1.000000
     18        -12.901359   1.000000
     19         -8.233532   1.000000
     20         -8.233515   1.000000
     21         -6.683040   1.000000
     22         -6.683024   1.000000
     23         -6.682488   1.000000
     24         -6.682473   1.000000
     25         -6.023657   1.000000
     26         -6.023601   1.000000
     27         -3.194797   1.000000
     28         -3.194763   1.000000
     29         -3.021159   1.000000
     30         -3.021127   1.000000
     31         -2.734450   1.000000
     32         -2.734402   1.000000
     33         -1.228139   1.000000
     34         -1.228137   1.000000
     35         -1.077713   1.000000
     36         -1.077695   1.000000
     37         -1.071210   1.000000
     38         -1.071190   1.000000
     39         -0.859601   1.000000
     40         -0.859596   1.000000
     41         -0.744621   1.000000
     42         -0.744605   1.000000
     43         -0.736830   1.000000
     44         -0.736815   1.000000
     45          4.304497   0.000000
     46          4.304551   0.000000
     47          5.362485   0.000000
     48          5.362598   0.000000
     49          5.406230   0.000000
     50          5.406361   0.000000
     51          5.466486   0.000000
     52          5.466503   0.000000
     53          6.069735   0.000000
     54          6.069840   0.000000
     55          6.150504   0.000000
     56          6.150551   0.000000
     57          6.167497   0.000000
     58          6.167555   0.000000
     59          7.001286   0.000000
     60          7.001334   0.000000
     61          7.347258   0.000000
     62          7.347302   0.000000
     63          8.485083   0.000000
     64          8.485210   0.000000
     65          8.806531   0.000000
     66          8.806597   0.000000
     67          8.885527   0.000000
     68          8.885591   0.000000
     69          9.954751   0.000000
     70          9.954861   0.000000
     71         10.507169   0.000000
     72         10.507250   0.000000
     73         10.740534   0.000000
     74         10.740575   0.000000
     75         10.791046   0.000000
     76         10.791129   0.000000
     77         10.989389   0.000000